/*--------------------------------*- C++ -*----------------------------------*\
| =========                 |                                                 |
| \\      /  F ield         | OpenFOAM: The Open Source CFD Toolbox           |
|  \\    /   O peration     | Version:  1.4.1-dev                             |
|   \\  /    A nd           | Web:      http://www.openfoam.org               |
|    \\/     M anipulation  |                                                 |
\*---------------------------------------------------------------------------*/

FoamFile
{
    version 2.0;
    format ascii;

    root "/home/cliffoi/OpenFOAM/cliffoi-1.4.1-dev/run/diffusionFoam";
    case "oecd_simplified_2G";
    instance "0";
    local "";

    class volScalarField;
    object _135Xe;
}

// * * * * * * * * * * * * * * * * * * * * * * * * * * * * * * * * * * * * * //

dimensions      [0 -3 0 0 0 0 0];

internalField   nonuniform List<scalar> 
9280
(
0
0
0
0
0
0
0
0
0
0
0
0
0
0
0
0
0
0
0
0
0
0
0
0
0
0
0
0
0
0
0
0
0
0
0
0
0
0
0
0
0
0
0
0
0
0
0
0
0
0
0
0
0
0
0
0
0
0
0
0
0
0
0
0
0
0
0
0
0
0
0
0
0
0
0
0
0
0
0
0
0
0
0
0
0
0
0
0
0
0
0
0
0
0
0
0
0
0
0
0
0
0
0
0
0
0
0
0
0
0
0
0
0
0
0
0
0
0
0
0
0
0
0
0
0
0
0
0
0
0
0
0
0
0
0
0
0
0
0
0
0
0
0
0
0
0
0
0
0
0
0
0
0
0
0
0
0
0
0
0
0
0
0
0
0
0
0
0
0
0
0
0
0
0
0
0
0
0
0
0
0
0
0
0
0
0
0
0
0
0
0
0
0
0
0
0
0
0
0
0
0
0
0
0
0
0
0
0
0
0
0
0
0
0
0
0
0
0
0
0
0
0
0
0
0
0
0
0
0
0
0
0
0
0
0
0
0
0
0
0
0
0
0
0
0
0
0
0
0
0
0
0
0
0
0
0
0
0
0
0
0
0
0
0
0
0
0
0
0
0
0
0
0
0
0
0
0
0
0
0
0
0
0
0
0
0
0
0
0
0
0
0
0
0
0
0
0
0
0
0
0
0
0
0
0
0
0
0
0
0
0
0
0
0
0
0
0
0
0
0
0
0
0
0
0
0
0
0
0
0
0
0
0
0
0
0
0
0
0
0
0
0
0
0
0
0
0
0
0
0
0
0
0
0
0
0
0
0
0
0
0
0
0
0
0
0
0
0
0
0
0
0
0
0
0
0
0
0
0
0
0
0
0
0
0
0
0
0
0
0
0
0
0
0
0
0
0
0
0
0
0
0
0
0
0
0
0
0
0
0
0
0
0
0
0
0
0
0
0
0
0
0
0
0
0
0
0
0
0
0
0
0
0
0
0
0
0
0
0
0
0
0
0
0
0
0
0
0
0
0
0
0
0
0
0
0
0
0
0
0
0
0
0
0
0
0
0
0
0
0
0
0
0
0
0
0
0
0
0
0
0
0
0
0
0
0
0
0
0
0
0
0
0
0
0
0
0
0
0
0
0
0
0
0
0
0
0
0
0
0
0
0
0
0
0
0
0
0
0
0
0
0
0
0
0
0
0
0
0
0
0
0
0
0
0
0
0
0
0
0
0
0
0
0
0
0
0
0
0
0
0
0
0
0
0
0
0
0
0
0
0
0
0
0
0
0
0
0
0
0
0
0
0
0
0
0
0
0
0
0
0
0
0
0
0
0
0
0
0
0
0
0
0
0
0
0
0
0
0
0
0
0
0
0
0
0
0
0
0
0
0
0
0
0
0
0
0
0
0
0
0
0
0
0
0
0
0
0
0
0
0
0
0
0
0
0
0
0
0
0
0
0
0
0
0
0
0
0
0
0
0
0
0
0
0
0
0
0
0
0
0
0
0
0
0
0
0
0
0
0
0
0
0
0
0
0
0
0
0
0
0
0
0
0
0
0
0
0
0
0
0
0
0
0
0
0
0
0
0
0
0
0
0
0
0
0
0
0
0
0
0
0
0
0
0
0
0
0
0
0
0
0
0
0
0
0
0
0
0
0
0
0
0
0
0
0
0
0
0
0
0
0
0
0
0
0
0
0
0
0
0
0
0
0
0
0
0
0
0
0
0
0
0
0
0
0
0
0
0
0
0
0
0
0
0
0
0
0
0
0
0
0
0
0
0
0
0
0
0
0
0
0
0
0
0
0
0
0
0
0
0
0
0
0
0
0
0
0
0
0
0
0
0
0
0
0
0
0
0
0
0
0
0
0
0
0
0
0
0
0
0
0
0
0
0
0
0
0
0
0
0
0
0
0
0
0
0
0
0
0
0
0
0
0
0
0
0
0
0
0
0
0
0
0
0
0
0
0
0
0
0
0
0
0
0
0
0
0
0
0
0
0
0
0
0
0
0
0
0
0
0
0
0
0
0
0
0
0
0
0
0
0
0
0
0
0
0
0
0
0
0
0
0
0
0
0
0
0
0
0
0
0
0
0
0
0
0
0
0
0
0
0
0
0
0
0
0
0
0
0
0
0
0
0
0
0
0
0
0
0
0
0
0
0
0
0
0
0
0
0
0
0
0
0
0
0
0
0
0
0
0
0
0
0
0
0
0
0
0
0
0
0
0
0
0
0
0
0
0
0
0
0
0
0
0
0
0
0
0
0
0
0
0
0
0
0
0
0
0
0
0
0
0
0
0
0
0
0
0
0
0
0
0
0
0
0
0
0
0
0
0
0
0
0
0
0
0
0
0
0
0
0
0
0
0
0
0
0
0
0
0
0
0
0
0
0
6.9538457e+19
6.9211655e+19
6.891652e+19
6.8642242e+19
7.1173669e+19
7.0722253e+19
7.0306624e+19
6.992173e+19
7.298387e+19
7.2485763e+19
7.2014501e+19
7.157056e+19
7.4825686e+19
7.4317248e+19
7.3825212e+19
7.3353411e+19
6.8378879e+19
6.8118077e+19
6.785328e+19
6.7579682e+19
6.9560307e+19
6.9214706e+19
6.8878037e+19
6.8544772e+19
7.1150707e+19
7.0749958e+19
7.0363036e+19
6.9985323e+19
7.2901484e+19
7.2466719e+19
7.204552e+19
7.1634451e+19
6.7294086e+19
6.6994751e+19
6.6681297e+19
6.6354681e+19
6.8211028e+19
6.7874663e+19
6.7535319e+19
6.7194453e+19
6.9613433e+19
6.9245525e+19
6.888147e+19
6.8522949e+19
7.1230926e+19
7.0833617e+19
7.0442693e+19
7.0059944e+19
6.6017269e+19
6.5673011e+19
6.5327716e+19
6.4989434e+19
6.6855419e+19
6.6523576e+19
6.620642e+19
6.5913646e+19
6.8173509e+19
6.7838587e+19
6.7525469e+19
6.724311e+19
6.9688828e+19
6.9334454e+19
6.9003461e+19
6.8703735e+19
6.4668913e+19
6.4380059e+19
6.4140291e+19
6.3970536e+19
6.5657051e+19
6.5450083e+19
6.5306818e+19
6.5240129e+19
6.7001695e+19
6.6811834e+19
6.6683253e+19
6.6622968e+19
6.8443882e+19
6.8232372e+19
6.8076279e+19
6.7979677e+19
0
0
0
0
0
0
0
0
0
0
0
0
0
0
0
0
0
0
0
0
0
0
0
0
0
0
0
0
0
0
0
0
0
0
0
0
0
0
0
0
0
0
0
0
0
0
0
0
0
0
0
0
0
0
0
0
0
0
0
0
0
0
0
0
0
0
0
0
0
0
0
0
0
0
0
0
0
0
0
0
0
0
0
0
0
0
0
0
0
0
0
0
0
0
0
0
0
0
0
0
0
0
0
0
0
0
0
0
0
0
0
0
0
0
0
0
0
0
0
0
0
0
0
0
0
0
0
0
0
0
0
0
0
0
0
0
0
0
0
0
0
0
0
0
0
0
0
0
0
0
0
0
0
0
0
0
0
0
0
0
0
0
0
0
0
0
0
0
0
0
0
0
0
0
0
0
0
0
0
0
0
0
0
0
0
0
0
0
0
0
0
0
0
0
0
0
0
0
0
0
0
0
0
0
0
0
0
0
0
0
0
0
0
0
0
0
0
0
0
0
0
0
0
0
0
0
0
0
0
0
0
0
0
0
0
0
0
0
0
0
7.6647065e+19
7.6142416e+19
7.5644271e+19
7.5158617e+19
7.8432358e+19
7.7935626e+19
7.7436152e+19
7.6941511e+19
8.0178749e+19
7.9689867e+19
7.9189491e+19
7.8686522e+19
8.1887138e+19
8.1404393e+19
8.0901757e+19
8.0389339e+19
7.4687065e+19
7.4228581e+19
7.3780918e+19
7.3341675e+19
7.6454793e+19
7.597626e+19
7.5504748e+19
7.5038722e+19
7.8185279e+19
7.7687109e+19
7.719177e+19
7.6698477e+19
7.9872562e+19
7.9353747e+19
7.8833479e+19
7.8311661e+19
7.2909017e+19
7.2482128e+19
7.2061476e+19
7.1648951e+19
7.4577003e+19
7.4119246e+19
7.3666213e+19
7.3219922e+19
7.6206643e+19
7.5716362e+19
7.5228689e+19
7.4745802e+19
7.7788257e+19
7.7263781e+19
7.673959e+19
7.6218045e+19
7.1247915e+19
7.0863162e+19
7.0500774e+19
7.0167808e+19
7.2783695e+19
7.2362118e+19
7.1960879e+19
7.1586464e+19
7.4271044e+19
7.3808882e+19
7.3364749e+19
7.2944736e+19
7.5702559e+19
7.5197551e+19
7.4708291e+19
7.4240595e+19
6.9871762e+19
6.9619737e+19
6.941727e+19
6.926689e+19
7.1245622e+19
7.0944567e+19
7.0687887e+19
7.0477213e+19
7.2555074e+19
7.2201371e+19
7.1887576e+19
7.1614738e+19
7.3800321e+19
7.3392636e+19
7.3021025e+19
7.2686131e+19
0
0
0
0
0
0
0
0
0
0
0
0
0
0
0
0
0
0
0
0
0
0
0
0
0
0
0
0
0
0
0
0
0
0
0
0
0
0
0
0
0
0
0
0
0
0
0
0
0
0
0
0
0
0
0
0
0
0
0
0
0
0
0
0
0
0
0
0
0
0
0
0
0
0
0
0
0
0
0
0
0
0
0
0
0
0
0
0
0
0
0
0
0
0
0
0
0
0
0
0
0
0
0
0
0
0
0
0
0
0
0
0
0
0
0
0
0
0
0
0
0
0
0
0
0
0
0
0
0
0
0
0
0
0
0
0
0
0
0
0
0
0
0
0
0
0
0
0
0
0
0
0
0
0
0
0
0
0
0
0
0
0
0
0
0
0
0
0
0
0
0
0
0
0
0
0
0
0
0
0
0
0
0
0
0
0
0
0
0
0
0
0
0
0
0
0
0
0
0
0
0
0
0
0
0
0
0
0
0
0
0
0
0
0
0
0
0
0
0
0
0
0
0
0
0
0
0
0
0
0
0
0
0
0
0
0
0
0
0
0
8.35589e+19
8.3080026e+19
8.257313e+19
8.2049476e+19
8.5194863e+19
8.471751e+19
8.4204208e+19
8.3667365e+19
8.6795102e+19
8.6317023e+19
8.5795245e+19
8.5243315e+19
8.8358989e+19
8.7878118e+19
8.7345956e+19
8.6777196e+19
8.1515531e+19
8.0974528e+19
8.0427833e+19
7.9875999e+19
8.3114461e+19
8.2549612e+19
8.1974935e+19
8.1391613e+19
8.4669717e+19
8.4079434e+19
8.347532e+19
8.2859173e+19
8.6181323e+19
8.5564177e+19
8.492934e+19
8.427922e+19
7.9319517e+19
7.8759315e+19
7.819706e+19
7.7635317e+19
8.0800652e+19
8.0203394e+19
7.960182e+19
7.899872e+19
8.2232511e+19
8.1597087e+19
8.0955207e+19
8.0309896e+19
8.3615841e+19
8.2941372e+19
8.2258447e+19
8.1570339e+19
7.7077604e+19
7.6528343e+19
7.5992707e+19
7.5476318e+19
7.8397742e+19
7.780335e+19
7.7220668e+19
7.6655179e+19
7.9664958e+19
7.9024924e+19
7.8394904e+19
7.7780287e+19
8.0881022e+19
8.0195119e+19
7.9517752e+19
7.8854249e+19
7.4984756e+19
7.4522851e+19
7.4093735e+19
7.3697742e+19
7.6112253e+19
7.5596452e+19
7.5110628e+19
7.4654868e+19
7.7186278e+19
7.6617226e+19
7.607575e+19
7.5561736e+19
7.8209686e+19
7.7588237e+19
7.6992328e+19
7.6421674e+19
0
0
0
0
0
0
0
0
0
0
0
0
0
0
0
0
0
0
0
0
0
0
0
0
0
0
0
0
0
0
0
0
0
0
0
0
0
0
0
0
0
0
0
0
0
0
0
0
0
0
0
0
0
0
0
0
0
0
0
0
0
0
0
0
0
0
0
0
0
0
0
0
0
0
0
0
0
0
0
0
0
0
0
0
0
0
0
0
0
0
0
0
0
0
0
0
0
0
0
0
0
0
0
0
0
0
0
0
0
0
0
0
0
0
0
0
0
0
0
0
0
0
0
0
0
0
0
0
0
0
0
0
0
0
0
0
0
0
0
0
0
0
0
0
0
0
0
0
0
0
0
0
0
0
0
0
0
0
0
0
0
0
0
0
0
0
0
0
0
0
0
0
0
0
0
0
0
0
0
0
0
0
0
0
0
0
0
0
0
0
0
0
0
0
0
0
0
0
0
0
0
0
0
0
0
0
0
0
0
0
0
0
0
0
0
0
0
0
0
0
0
0
0
0
0
0
0
0
0
0
0
0
0
0
0
0
0
0
0
0
8.9885323e+19
8.9399803e+19
8.885555e+19
8.8268412e+19
9.1372468e+19
9.0880655e+19
9.0322815e+19
8.9715966e+19
9.2818476e+19
9.2318933e+19
9.1746227e+19
9.1118549e+19
9.4221187e+19
9.371268e+19
9.312404e+19
9.2474633e+19
8.7648877e+19
8.7003637e+19
8.6336995e+19
8.5651965e+19
8.9071594e+19
8.8397244e+19
8.7697934e+19
8.697728e+19
9.0448386e+19
8.9744131e+19
8.9011513e+19
8.8254746e+19
9.1777947e+19
9.1043215e+19
9.0276876e+19
8.9483732e+19
8.4951077e+19
8.4236913e+19
8.3512441e+19
8.2781193e+19
8.6238314e+19
8.5484033e+19
8.4717744e+19
8.3943243e+19
8.7477361e+19
8.668277e+19
8.5874618e+19
8.505697e+19
8.8667811e+19
8.7832938e+19
8.6983098e+19
8.6122622e+19
8.2047324e+19
8.1315566e+19
8.0591076e+19
7.9879144e+19
8.3164875e+19
8.2387496e+19
8.1616312e+19
8.08566e+19
8.4234371e+19
8.3411807e+19
8.2594552e+19
8.1787879e+19
8.5256264e+19
8.4389148e+19
8.3526621e+19
8.2673971e+19
7.918475e+19
7.851192e+19
7.7862914e+19
7.7237305e+19
8.0113261e+19
7.93902e+19
7.8689539e+19
7.801072e+19
8.0996633e+19
8.0224619e+19
7.9473834e+19
7.874361e+19
8.1835999e+19
8.1016425e+19
8.0217138e+19
7.9437371e+19
0
0
0
0
0
0
0
0
0
0
0
0
0
0
0
0
0
0
0
0
0
0
0
0
0
0
0
0
0
0
0
0
0
0
0
0
0
0
0
0
0
0
0
0
0
0
0
0
0
0
0
0
0
0
0
0
0
0
0
0
0
0
0
0
0
0
0
0
0
0
0
0
0
0
0
0
0
0
0
0
0
0
0
0
0
0
0
0
0
0
0
0
0
0
0
0
0
0
0
0
0
0
0
0
0
0
0
0
0
0
0
0
0
0
0
0
0
0
0
0
0
0
0
0
0
0
0
0
0
0
0
0
0
0
0
0
0
0
0
0
0
0
0
0
0
0
0
0
0
0
0
0
0
0
0
0
0
0
0
0
0
0
0
0
0
0
0
0
0
0
0
0
0
0
0
0
0
0
0
0
0
0
0
0
0
0
0
0
0
0
0
0
0
0
0
0
0
0
0
0
0
0
0
0
0
0
0
0
0
0
0
0
0
0
0
0
0
0
0
0
0
0
0
0
0
0
0
0
0
0
0
0
0
0
0
0
0
0
0
0
9.557832e+19
9.505981e+19
9.4454374e+19
9.3782553e+19
9.6887539e+19
9.6358174e+19
9.5735282e+19
9.5040573e+19
9.8146514e+19
9.7605622e+19
9.6964809e+19
9.6246943e+19
9.9352962e+19
9.8800045e+19
9.8141036e+19
9.7399941e+19
9.305883e+19
9.2293274e+19
9.1493021e+19
9.066346e+19
9.4289516e+19
9.3493006e+19
9.2658869e+19
9.179307e+19
9.5468466e+19
9.4641087e+19
9.3773309e+19
9.2871665e+19
9.6594164e+19
9.573621e+19
9.4835245e+19
9.3898357e+19
8.9809109e+19
8.8934201e+19
8.8043057e+19
8.7140282e+19
9.090061e+19
8.9986126e+19
8.9054273e+19
8.8109924e+19
9.1941629e+19
9.0988235e+19
9.0016464e+19
8.9031456e+19
9.2931481e+19
9.1940039e+19
9.0929334e+19
8.9904765e+19
8.6230834e+19
8.5319983e+19
8.4413156e+19
8.3515665e+19
8.7158244e+19
8.620465e+19
8.5254658e+19
8.431361e+19
8.8038583e+19
8.7043408e+19
8.605154e+19
8.5068354e+19
8.8871908e+19
8.7836473e+19
8.680416e+19
8.5780386e+19
8.2632282e+19
8.1766652e+19
8.092057e+19
8.0093181e+19
8.3386255e+19
8.2476178e+19
8.1585091e+19
8.0712055e+19
8.4098588e+19
8.3145773e+19
8.2211546e+19
8.1294894e+19
8.476988e+19
8.3776127e+19
8.2800697e+19
8.1842507e+19
0
0
0
0
0
0
0
0
0
0
0
0
0
0
0
0
0
0
0
0
0
0
0
0
0
0
0
0
0
0
0
0
0
0
0
0
0
0
0
0
0
0
0
0
0
0
0
0
0
0
0
0
0
0
0
0
0
0
0
0
0
0
0
0
0
0
0
0
0
0
0
0
0
0
0
0
0
0
0
0
0
0
0
0
0
0
0
0
0
0
0
0
0
0
0
0
0
0
0
0
0
0
0
0
0
0
0
0
0
0
0
0
0
0
0
0
0
0
0
0
0
0
0
0
0
0
0
0
0
0
0
0
0
0
0
0
0
0
0
0
0
0
0
0
0
0
0
0
0
0
0
0
0
0
0
0
0
0
0
0
0
0
0
0
0
0
0
0
0
0
0
0
0
0
0
0
0
0
0
0
0
0
0
0
0
0
0
0
0
0
0
0
0
0
0
0
0
0
0
0
0
0
0
0
0
0
0
0
0
0
0
0
0
0
0
0
0
0
0
0
0
0
0
0
0
0
0
0
0
0
0
0
0
0
0
0
0
0
0
0
1.0050469e+20
9.9939415e+19
9.9262114e+19
9.8497915e+19
1.0159962e+20
1.0102181e+20
1.003263e+20
9.9539302e+19
1.0263581e+20
1.0204544e+20
1.0133196e+20
1.0052265e+20
1.0361146e+20
1.0300865e+20
1.0227761e+20
1.0144664e+20
9.7665156e+19
9.6777121e+19
9.5843624e+19
9.487229e+19
9.868007e+19
9.7762644e+19
9.6797462e+19
9.5792672e+19
9.9637639e+19
9.8691693e+19
9.7695858e+19
9.6658782e+19
1.0053671e+20
9.956329e+19
9.8538005e+19
9.7469984e+19
9.3869506e+19
9.2841069e+19
9.1792594e+19
9.0729735e+19
9.4755096e+19
9.3690896e+19
9.2605986e+19
9.1506268e+19
9.5587707e+19
9.4489142e+19
9.3369294e+19
9.2234298e+19
9.6366865e+19
9.5235494e+19
9.4082353e+19
9.2913801e+19
8.9658264e+19
8.8584038e+19
8.7512848e+19
8.6450154e+19
9.0397705e+19
8.9286295e+19
8.8177921e+19
8.7078085e+19
9.1090305e+19
8.9943446e+19
8.8799695e+19
8.7664596e+19
9.1736166e+19
9.0555712e+19
8.9378494e+19
8.8210101e+19
8.540068e+19
8.4367875e+19
8.3353244e+19
8.2355642e+19
8.5991512e+19
8.4921615e+19
8.3869845e+19
8.2834995e+19
8.6542877e+19
8.543792e+19
8.4351124e+19
8.3281228e+19
8.7055265e+19
8.5917341e+19
8.4797679e+19
8.3694967e+19
0
0
0
0
0
0
0
0
0
0
0
0
0
0
0
0
0
0
0
0
0
0
0
0
0
0
0
0
0
0
0
0
0
0
0
0
0
0
0
0
0
0
0
0
0
0
0
0
0
0
0
0
0
0
0
0
0
0
0
0
0
0
0
0
0
0
0
0
0
0
0
0
0
0
0
0
0
0
0
0
0
0
0
0
0
0
0
0
0
0
0
0
0
0
0
0
0
0
0
0
0
0
0
0
0
0
0
0
0
0
0
0
0
0
0
0
0
0
0
0
0
0
0
0
0
0
0
0
0
0
0
0
0
0
0
0
0
0
0
0
0
0
0
0
0
0
0
0
0
0
0
0
0
0
0
0
0
0
0
0
0
0
0
0
0
0
0
0
0
0
0
0
0
0
0
0
0
0
0
0
0
0
0
0
0
0
0
0
0
0
0
0
0
0
0
0
0
0
0
0
0
0
0
0
0
0
0
0
0
0
0
0
0
0
0
0
0
0
0
0
0
0
0
0
0
0
0
0
0
0
0
0
0
0
0
0
0
0
0
0
1.0452495e+20
1.0390994e+20
1.031619e+20
1.0231007e+20
1.0537479e+20
1.0474797e+20
1.0398361e+20
1.0311189e+20
1.061597e+20
1.0552156e+20
1.047417e+20
1.0385117e+20
1.0687853e+20
1.0622966e+20
1.0543525e+20
1.0452713e+20
1.0137625e+20
1.0037657e+20
9.93232e+19
9.822573e+19
1.0215535e+20
1.0113077e+20
1.0005084e+20
9.8925563e+19
1.0287324e+20
1.0182526e+20
1.0072041e+20
9.9569113e+19
1.0352924e+20
1.024595e+20
1.0133152e+20
1.0015609e+20
9.7092178e+19
9.5929703e+19
9.474505e+19
9.3544792e+19
9.7763326e+19
9.6571585e+19
9.5357329e+19
9.412733e+19
9.838007e+19
9.716102e+19
9.5919181e+19
9.4661511e+19
9.894224e+19
9.7697948e+19
9.6430648e+19
9.5147471e+19
9.2335423e+19
9.112333e+19
8.9914651e+19
8.8715015e+19
9.2888239e+19
9.1646561e+19
9.040851e+19
8.9179754e+19
9.3394808e+19
9.2125683e+19
9.0860423e+19
8.9604732e+19
9.3855347e+19
9.2560989e+19
9.1270747e+19
8.999036e+19
8.752916e+19
8.6360415e+19
8.5210086e+19
8.4076813e+19
8.7965035e+19
8.6767661e+19
8.5588899e+19
8.442734e+19
8.8363358e+19
8.7139587e+19
8.5934651e+19
8.4747098e+19
8.8724582e+19
8.7476681e+19
8.6247853e+19
8.5036608e+19
0
0
0
0
0
0
0
0
0
0
0
0
0
0
0
0
0
0
0
0
0
0
0
0
0
0
0
0
0
0
0
0
0
0
0
0
0
0
0
0
0
0
0
0
0
0
0
0
0
0
0
0
0
0
0
0
0
0
0
0
0
0
0
0
0
0
0
0
0
0
0
0
0
0
0
0
0
0
0
0
0
0
0
0
0
0
0
0
0
0
0
0
0
0
0
0
0
0
0
0
0
0
0
0
0
0
0
0
0
0
0
0
0
0
0
0
0
0
0
0
0
0
0
0
0
0
0
0
0
0
0
0
0
0
0
0
0
0
0
0
0
0
0
0
0
0
0
0
0
0
0
0
0
0
0
0
0
0
0
0
0
0
0
0
0
0
0
0
0
0
0
0
0
0
0
0
0
0
0
0
0
0
0
0
0
0
0
0
0
0
0
0
0
0
0
0
0
0
0
0
0
0
0
0
0
0
0
0
0
0
0
0
0
0
0
0
0
0
0
0
0
0
0
0
0
0
0
0
0
0
0
0
0
0
0
0
0
0
0
0
1.075303e+20
1.0687141e+20
1.0606348e+20
1.051391e+20
1.0811419e+20
1.0744604e+20
1.0662574e+20
1.0568654e+20
1.0862951e+20
1.0795298e+20
1.0712153e+20
1.0616902e+20
1.0907571e+20
1.0839172e+20
1.0755043e+20
1.0658622e+20
1.0412282e+20
1.0303306e+20
1.0188384e+20
1.006863e+20
1.0465354e+20
1.035456e+20
1.0237714e+20
1.0115958e+20
1.0512105e+20
1.0399687e+20
1.0281125e+20
1.0157587e+20
1.055251e+20
1.0438671e+20
1.0318608e+20
1.0193514e+20
9.9449728e+19
9.8182359e+19
9.6891812e+19
9.5585372e+19
9.9902488e+19
9.8614292e+19
9.7302789e+19
9.5975404e+19
1.0030052e+20
9.8993822e+19
9.7663721e+19
9.6317769e+19
1.0064387e+20
9.9321056e+19
9.7974774e+19
9.6612683e+19
9.4270095e+19
9.295278e+19
9.163984e+19
9.0337044e+19
9.4639301e+19
9.3301364e+19
9.1968056e+19
9.0645177e+19
9.4963226e+19
9.3607046e+19
9.2255741e+19
9.0915135e+19
9.5242129e+19
9.3870126e+19
9.2503227e+19
9.1147276e+19
8.9049151e+19
8.7779411e+19
8.652899e+19
8.5296363e+19
8.9337486e+19
8.8048223e+19
8.6778522e+19
8.5526827e+19
8.9589991e+19
8.8283534e+19
8.6996876e+19
8.5728428e+19
8.9807041e+19
8.8485735e+19
8.7184446e+19
8.5901562e+19
0
0
0
0
0
0
0
0
0
0
0
0
0
0
0
0
0
0
0
0
0
0
0
0
0
0
0
0
0
0
0
0
0
0
0
0
0
0
0
0
0
0
0
0
0
0
0
0
0
0
0
0
0
0
0
0
0
0
0
0
0
0
0
0
0
0
0
0
0
0
0
0
0
0
0
0
0
0
0
0
0
0
0
0
0
0
0
0
0
0
0
0
0
0
0
0
0
0
0
0
0
0
0
0
0
0
0
0
0
0
0
0
0
0
0
0
0
0
0
0
0
0
0
0
0
0
0
0
0
0
0
0
0
0
0
0
0
0
0
0
0
0
0
0
0
0
0
0
0
0
0
0
0
0
0
0
0
0
0
0
0
0
0
0
0
0
0
0
0
0
0
0
0
0
0
0
0
0
0
0
0
0
0
0
0
0
0
0
0
0
0
0
0
0
0
0
0
0
0
0
0
0
0
0
0
0
0
0
0
0
0
0
0
0
0
0
0
0
0
0
0
0
0
0
0
0
0
0
0
0
0
0
0
0
0
0
0
0
0
0
1.0945238e+20
1.0876192e+20
1.0791215e+20
1.0693789e+20
1.0975923e+20
1.0906332e+20
1.0820649e+20
1.072239e+20
1.0999607e+20
1.0929579e+20
1.0843333e+20
1.0744418e+20
1.1016283e+20
1.0945925e+20
1.0859267e+20
1.0759874e+20
1.0586554e+20
1.0471501e+20
1.0350159e+20
1.0223741e+20
1.0614226e+20
1.0498174e+20
1.037578e+20
1.0248275e+20
1.0635525e+20
1.051869e+20
1.0395476e+20
1.0267125e+20
1.0650454e+20
1.0533057e+20
1.0409256e+20
1.0280301e+20
1.0093262e+20
9.9596124e+19
9.8236124e+19
9.6860366e+19
1.0116687e+20
9.9819173e+19
9.8447956e+19
9.7061034e+19
1.0134674e+20
9.9990361e+19
9.8610454e+19
9.7214897e+19
1.0147239e+20
1.0010985e+20
9.8723801e+19
9.7322152e+19
9.5476265e+19
9.4090889e+19
9.2710824e+19
9.1341931e+19
9.566588e+19
9.4269605e+19
9.2878821e+19
9.1499405e+19
9.5811205e+19
9.4406521e+19
9.300748e+19
9.1619967e+19
9.5912452e+19
9.4501861e+19
9.3097031e+19
9.1703854e+19
8.9988982e+19
8.8655178e+19
8.734159e+19
8.6046583e+19
9.0136128e+19
8.8792184e+19
8.7468629e+19
8.6163808e+19
9.0248755e+19
8.8897032e+19
8.756584e+19
8.625351e+19
9.0327103e+19
8.896996e+19
8.7633459e+19
8.631592e+19
0
0
0
0
0
0
0
0
0
0
0
0
0
0
0
0
0
0
0
0
0
0
0
0
0
0
0
0
0
0
0
0
0
0
0
0
0
0
0
0
0
0
0
0
0
0
0
0
0
0
0
0
0
0
0
0
0
0
0
0
0
0
0
0
0
0
0
0
0
0
0
0
0
0
0
0
0
0
0
0
0
0
0
0
0
0
0
0
0
0
0
0
0
0
0
0
0
0
0
0
0
0
0
0
0
0
0
0
0
0
0
0
0
0
0
0
0
0
0
0
0
0
0
0
0
0
0
0
0
0
0
0
0
0
0
0
0
0
0
0
0
0
0
0
0
0
0
0
0
0
0
0
0
0
0
0
0
0
0
0
0
0
0
0
0
0
0
0
0
0
0
0
0
0
0
0
0
0
0
0
0
0
0
0
0
0
0
0
0
0
0
0
0
0
0
0
0
0
0
0
0
0
0
0
0
0
0
0
0
0
0
0
0
0
0
0
0
0
0
0
0
0
0
0
0
0
0
0
0
0
0
0
0
0
0
0
0
0
0
0
1.1025952e+20
1.0955377e+20
1.0868455e+20
1.0768764e+20
1.1028628e+20
1.0957946e+20
1.0870911e+20
1.0771104e+20
1.102433e+20
1.0953653e+20
1.0866655e+20
1.0766912e+20
1.1013091e+20
1.0942527e+20
1.0855715e+20
1.0756215e+20
1.0659023e+20
1.0541285e+20
1.0417133e+20
1.028782e+20
1.0661244e+20
1.054339e+20
1.0419121e+20
1.0289696e+20
1.0657139e+20
1.053939e+20
1.0415241e+20
1.0285946e+20
1.0646731e+20
1.0529307e+20
1.0405511e+20
1.027659e+20
1.0154396e+20
1.0017781e+20
9.8788172e+19
9.7382985e+19
1.0156161e+20
1.001944e+20
9.8803732e+19
9.739756e+19
1.0152552e+20
1.0015978e+20
9.8770635e+19
9.7366025e+19
1.0143585e+20
1.000741e+20
9.8689025e+19
9.7288508e+19
9.5969809e+19
9.4555819e+19
9.3147672e+19
9.1751263e+19
9.5983444e+19
9.4568559e+19
9.3159564e+19
9.1762356e+19
9.5953495e+19
9.4540215e+19
9.3132836e+19
9.1737252e+19
9.588008e+19
9.447089e+19
9.3067579e+19
9.1676034e+19
9.0371368e+19
8.9011163e+19
8.7671677e+19
8.6351224e+19
9.0381707e+19
8.9020794e+19
8.7680643e+19
8.6359562e+19
9.0358235e+19
8.8998961e+19
8.7660456e+19
8.6341031e+19
9.0301023e+19
8.8945726e+19
8.7611173e+19
8.6295678e+19
0
0
0
0
0
0
0
0
0
0
0
0
0
0
0
0
0
0
0
0
0
0
0
0
0
0
0
0
0
0
0
0
0
0
0
0
0
0
0
0
0
0
0
0
0
0
0
0
0
0
0
0
0
0
0
0
0
0
0
0
0
0
0
0
0
0
0
0
0
0
0
0
0
0
0
0
0
0
0
0
0
0
0
0
0
0
0
0
0
0
0
0
0
0
0
0
0
0
0
0
0
0
0
0
0
0
0
0
0
0
0
0
0
0
0
0
0
0
0
0
0
0
0
0
0
0
0
0
0
0
0
0
0
0
0
0
0
0
0
0
0
0
0
0
0
0
0
0
0
0
0
0
0
0
0
0
0
0
0
0
0
0
0
0
0
0
0
0
0
0
0
0
0
0
0
0
0
0
0
0
0
0
0
0
0
0
0
0
0
0
0
0
0
0
0
0
0
0
0
0
0
0
0
0
0
0
0
0
0
0
0
0
0
0
0
0
0
0
0
0
0
0
0
0
0
0
0
0
0
0
0
0
0
0
0
0
0
0
0
0
1.099495e+20
1.0924607e+20
1.0838125e+20
1.0739044e+20
1.0969955e+20
1.0899936e+20
1.0813928e+20
1.0715438e+20
1.0938166e+20
1.0868571e+20
1.0783172e+20
1.0685441e+20
1.0899653e+20
1.0830575e+20
1.0745917e+20
1.0649105e+20
1.0630049e+20
1.0513167e+20
1.0389955e+20
1.0261648e+20
1.0607127e+20
1.0491001e+20
1.03686e+20
1.0241143e+20
1.0578005e+20
1.0462844e+20
1.0341474e+20
1.0215099e+20
1.0542728e+20
1.0428733e+20
1.0308611e+20
1.0183544e+20
1.0129279e+20
9.9937536e+19
9.8559032e+19
9.7165119e+19
1.0109652e+20
9.9750228e+19
9.838078e+19
9.6995953e+19
1.0084725e+20
9.9512336e+19
9.8154386e+19
9.6781092e+19
1.0054518e+20
9.9224024e+19
9.7879967e+19
9.6520606e+19
9.5763287e+19
9.4360657e+19
9.296385e+19
9.1578743e+19
9.5603186e+19
9.420956e+19
9.2821672e+19
9.1445385e+19
9.5399824e+19
9.4017618e+19
9.2641039e+19
9.1275932e+19
9.5153234e+19
9.3784829e+19
9.2421917e+19
9.1070324e+19
9.0210102e+19
8.8861111e+19
8.7532807e+19
8.6223512e+19
9.0085463e+19
8.8745095e+19
8.7425327e+19
8.6124494e+19
8.9927059e+19
8.8597615e+19
8.728866e+19
8.5998544e+19
8.9734809e+19
8.8418573e+19
8.7122696e+19
8.5845544e+19
0
0
0
0
0
0
0
0
0
0
0
0
0
0
0
0
0
0
0
0
0
0
0
0
0
0
0
0
0
0
0
0
0
0
0
0
0
0
0
0
0
0
0
0
0
0
0
0
0
0
0
0
0
0
0
0
0
0
0
0
0
0
0
0
0
0
0
0
0
0
0
0
0
0
0
0
0
0
0
0
0
0
0
0
0
0
0
0
0
0
0
0
0
0
0
0
0
0
0
0
0
0
0
0
0
0
0
0
0
0
0
0
0
0
0
0
0
0
0
0
0
0
0
0
0
0
0
0
0
0
0
0
0
0
0
0
0
0
0
0
0
0
0
0
0
0
0
0
0
0
0
0
0
0
0
0
0
0
0
0
0
0
0
0
0
0
0
0
0
0
0
0
0
0
0
0
0
0
0
0
0
0
0
0
0
0
0
0
0
0
0
0
0
0
0
0
0
0
0
0
0
0
0
0
0
0
0
0
0
0
0
0
0
0
0
0
0
0
0
0
0
0
0
0
0
0
0
0
0
0
0
0
0
0
0
0
0
0
0
0
1.0854493e+20
1.078602e+20
1.0702228e+20
1.0606489e+20
1.0802779e+20
1.0734992e+20
1.0652181e+20
1.055766e+20
1.0744613e+20
1.0677582e+20
1.0595861e+20
1.0502695e+20
1.0680108e+20
1.0613898e+20
1.0533364e+20
1.0441677e+20
1.0501347e+20
1.0388714e+20
1.0270049e+20
1.0146508e+20
1.0453922e+20
1.0342837e+20
1.0225828e+20
1.0104024e+20
1.0400519e+20
1.0291158e+20
1.0175996e+20
1.0056131e+20
1.0341212e+20
1.0233741e+20
1.0120608e+20
1.0002872e+20
1.0019057e+20
9.8885468e+19
9.7557641e+19
9.6214562e+19
9.978366e+19
9.8496861e+19
9.7187536e+19
9.5863028e+19
9.9324763e+19
9.805842e+19
9.6769791e+19
9.5466075e+19
9.8814212e+19
9.7570389e+19
9.630457e+19
9.5023788e+19
9.4863434e+19
9.3511168e+19
9.2164246e+19
9.0828471e+19
9.4530438e+19
9.3196602e+19
9.186795e+19
9.055026e+19
9.4154256e+19
9.2841084e+19
9.1532935e+19
9.0235557e+19
9.3734901e+19
9.2444566e+19
9.1159097e+19
8.9884211e+19
8.9508597e+19
8.8207835e+19
8.6927286e+19
8.5665338e+19
8.9248281e+19
8.7965237e+19
8.6702249e+19
8.5457732e+19
8.8953693e+19
8.7690582e+19
8.6447371e+19
8.5222503e+19
8.8624645e+19
8.7383654e+19
8.6162413e+19
8.4959397e+19
0
0
0
0
0
0
0
0
0
0
0
0
0
0
0
0
0
0
0
0
0
0
0
0
0
0
0
0
0
0
0
0
0
0
0
0
0
0
0
0
0
0
0
0
0
0
0
0
0
0
0
0
0
0
0
0
0
0
0
0
0
0
0
0
0
0
0
0
0
0
0
0
0
0
0
0
0
0
0
0
0
0
0
0
0
0
0
0
0
0
0
0
0
0
0
0
0
0
0
0
0
0
0
0
0
0
0
0
0
0
0
0
0
0
0
0
0
0
0
0
0
0
0
0
0
0
0
0
0
0
0
0
0
0
0
0
0
0
0
0
0
0
0
0
0
0
0
0
0
0
0
0
0
0
0
0
0
0
0
0
0
0
0
0
0
0
0
0
0
0
0
0
0
0
0
0
0
0
0
0
0
0
0
0
0
0
0
0
0
0
0
0
0
0
0
0
0
0
0
0
0
0
0
0
0
0
0
0
0
0
0
0
0
0
0
0
0
0
0
0
0
0
0
0
0
0
0
0
0
0
0
0
0
0
0
0
0
0
0
0
1.0609393e+20
1.0544057e+20
1.0464796e+20
1.0374702e+20
1.0532607e+20
1.0468188e+20
1.0390275e+20
1.0301876e+20
1.0449906e+20
1.0386433e+20
1.0309931e+20
1.0223315e+20
1.0361456e+20
1.0298949e+20
1.0223905e+20
1.0139145e+20
1.0276084e+20
1.0170658e+20
1.0059721e+20
9.944297e+19
1.0205229e+20
1.0101989e+20
9.9934052e+19
9.8804598e+19
1.0128747e+20
1.0027821e+20
9.9217338e+19
9.8114223e+19
1.0046753e+20
9.9482537e+19
9.8447898e+19
9.737253e+19
9.8252387e+19
9.7033051e+19
9.5792059e+19
9.4536266e+19
9.7639722e+19
9.6446728e+19
9.5232476e+19
9.4003634e+19
9.6976706e+19
9.5811787e+19
9.4626076e+19
9.3426038e+19
9.6263885e+19
9.5128644e+19
9.3973151e+19
9.2803658e+19
9.3272395e+19
9.2006998e+19
9.0746326e+19
8.9496059e+19
9.2766773e+19
9.1528339e+19
9.029451e+19
8.9070929e+19
9.2218088e+19
9.1008554e+19
8.9803537e+19
8.8608646e+19
9.1626412e+19
9.044762e+19
8.9273302e+19
8.8109027e+19
8.8260929e+19
8.704421e+19
8.5847107e+19
8.4668131e+19
8.7862325e+19
8.667199e+19
8.5501166e+19
8.4348398e+19
8.7428601e+19
8.6266719e+19
8.512428e+19
8.3999869e+19
8.6959515e+19
8.5828105e+19
8.471612e+19
8.3622188e+19
0
0
0
0
0
0
0
0
0
0
0
0
0
0
0
0
0
0
0
0
0
0
0
0
0
0
0
0
0
0
0
0
0
0
0
0
0
0
0
0
0
0
0
0
0
0
0
0
0
0
0
0
0
0
0
0
0
0
0
0
0
0
0
0
0
0
0
0
0
0
0
0
0
0
0
0
0
0
0
0
0
0
0
0
0
0
0
0
0
0
0
0
0
0
0
0
0
0
0
0
0
0
0
0
0
0
0
0
0
0
0
0
0
0
0
0
0
0
0
0
0
0
0
0
0
0
0
0
0
0
0
0
0
0
0
0
0
0
0
0
0
0
0
0
0
0
0
0
0
0
0
0
0
0
0
0
0
0
0
0
0
0
0
0
0
0
0
0
0
0
0
0
0
0
0
0
0
0
0
0
0
0
0
0
0
0
0
0
0
0
0
0
0
0
0
0
0
0
0
0
0
0
0
0
0
0
0
0
0
0
0
0
0
0
0
0
0
0
0
0
0
0
0
0
0
0
0
0
0
0
0
0
0
0
0
0
0
0
0
0
1.0267438e+20
1.0205902e+20
1.013235e+20
1.0049505e+20
1.0168046e+20
1.0107472e+20
1.0035431e+20
9.9545436e+19
1.0063485e+20
1.0003851e+20
9.9333234e+19
9.8544176e+19
9.9539718e+19
9.8952386e+19
9.8262103e+19
9.7492942e+19
9.9593668e+19
9.8633919e+19
9.7626642e+19
9.6580275e+19
9.8667215e+19
9.7733511e+19
9.6754553e+19
9.5738279e+19
9.7689575e+19
9.6782543e+19
9.5832687e+19
9.4847427e+19
9.6662231e+19
9.5782316e+19
9.4862164e+19
9.3908658e+19
9.5501868e+19
9.4397765e+19
9.3274034e+19
9.2136702e+19
9.4691318e+19
9.3619665e+19
9.2529098e+19
9.1425408e+19
9.3832955e+19
9.2794902e+19
9.1738747e+19
9.0670039e+19
9.2927541e+19
9.1924071e+19
9.0903415e+19
8.9870875e+19
9.099184e+19
8.9845526e+19
8.87037e+19
8.757189e+19
9.0314485e+19
8.9202275e+19
8.8094632e+19
8.6997047e+19
8.9594478e+19
8.8517875e+19
8.7445999e+19
8.6384301e+19
8.8831958e+19
8.7792335e+19
8.675769e+19
8.5733441e+19
8.6454814e+19
8.5355842e+19
8.4276338e+19
8.3214981e+19
8.5914238e+19
8.4849605e+19
8.3804565e+19
8.2777845e+19
8.5337506e+19
8.430905e+19
8.3300405e+19
8.2310349e+19
8.4724319e+19
8.3733804e+19
8.2763428e+19
8.1812028e+19
0
0
0
0
0
0
0
0
0
0
0
0
0
0
0
0
0
0
0
0
0
0
0
0
0
0
0
0
0
0
0
0
0
0
0
0
0
0
0
0
0
0
0
0
0
0
0
0
0
0
0
0
0
0
0
0
0
0
0
0
0
0
0
0
0
0
0
0
0
0
0
0
0
0
0
0
0
0
0
0
0
0
0
0
0
0
0
0
0
0
0
0
0
0
0
0
0
0
0
0
0
0
0
0
0
0
0
0
0
0
0
0
0
0
0
0
0
0
0
0
0
0
0
0
0
0
0
0
0
0
0
0
0
0
0
0
0
0
0
0
0
0
0
0
0
0
0
0
0
0
0
0
0
0
0
0
0
0
0
0
0
0
0
0
0
0
0
0
0
0
0
0
0
0
0
0
0
0
0
0
0
0
0
0
0
0
0
0
0
0
0
0
0
0
0
0
0
0
0
0
0
0
0
0
0
0
0
0
0
0
0
0
0
0
0
0
0
0
0
0
0
0
0
0
0
0
0
0
0
0
0
0
0
0
0
0
0
0
0
0
9.8397313e+19
9.7818448e+19
9.7142841e+19
9.6393469e+19
9.7209954e+19
9.6638846e+19
9.5977418e+19
9.5247538e+19
9.5979999e+19
9.5415765e+19
9.4767832e+19
9.4056948e+19
9.4709809e+19
9.4151383e+19
9.3516064e+19
9.2823478e+19
9.558673e+19
9.4734185e+19
9.3844147e+19
9.2922947e+19
9.4464656e+19
9.3639539e+19
9.2779827e+19
9.1891291e+19
9.3297608e+19
9.2499769e+19
9.1670392e+19
9.0814675e+19
9.2087156e+19
9.1316236e+19
9.0516991e+19
8.9694038e+19
9.197587e+19
9.1007786e+19
9.0023548e+19
8.9028202e+19
9.0978744e+19
9.0046666e+19
8.9099585e+19
8.8142288e+19
8.9936952e+19
8.9041303e+19
8.8131933e+19
8.7213365e+19
8.8851226e+19
8.7992232e+19
8.712093e+19
8.6241584e+19
8.8027058e+19
8.7025649e+19
8.6029577e+19
8.5044226e+19
8.7179889e+19
8.6217783e+19
8.526149e+19
8.4316369e+19
8.6290515e+19
8.5368645e+19
8.4453197e+19
8.3549512e+19
8.5358914e+19
8.4478049e+19
8.3604365e+19
8.2743193e+19
8.4074342e+19
8.3123455e+19
8.2193163e+19
8.1282366e+19
8.3387187e+19
8.2477531e+19
8.1589076e+19
8.0720788e+19
8.2662389e+19
8.1795481e+19
8.0950548e+19
8.0126631e+19
8.1899373e+19
8.1076638e+19
8.0276844e+19
7.9499114e+19
0
0
0
0
0
0
0
0
0
0
0
0
0
0
0
0
0
0
0
0
0
0
0
0
0
0
0
0
0
0
0
0
0
0
0
0
0
0
0
0
0
0
0
0
0
0
0
0
0
0
0
0
0
0
0
0
0
0
0
0
0
0
0
0
0
0
0
0
0
0
0
0
0
0
0
0
0
0
0
0
0
0
0
0
0
0
0
0
0
0
0
0
0
0
0
0
0
0
0
0
0
0
0
0
0
0
0
0
0
0
0
0
0
0
0
0
0
0
0
0
0
0
0
0
0
0
0
0
0
0
0
0
0
0
0
0
0
0
0
0
0
0
0
0
0
0
0
0
0
0
0
0
0
0
0
0
0
0
0
0
0
0
0
0
0
0
0
0
0
0
0
0
0
0
0
0
0
0
0
0
0
0
0
0
0
0
0
0
0
0
0
0
0
0
0
0
0
0
0
0
0
0
0
0
0
0
0
0
0
0
0
0
0
0
0
0
0
0
0
0
0
0
0
0
0
0
0
0
0
0
0
0
0
0
0
0
0
0
0
0
9.3401704e+19
9.2847831e+19
9.2224044e+19
9.1548847e+19
9.2057916e+19
9.150714e+19
9.089359e+19
9.0234653e+19
9.0680528e+19
9.0131179e+19
8.952635e+19
8.8882317e+19
8.9271409e+19
8.8721591e+19
8.8123729e+19
8.7493001e+19
9.0834802e+19
9.0090225e+19
8.9320691e+19
8.853023e+19
8.9541923e+19
8.8822887e+19
8.8082416e+19
8.7323952e+19
8.8209706e+19
8.7515172e+19
8.6802883e+19
8.6075684e+19
8.6839067e+19
8.6167752e+19
8.5482512e+19
8.4785599e+19
8.7722203e+19
8.6899879e+19
8.6066802e+19
8.5226976e+19
8.655036e+19
8.5764504e+19
8.4969597e+19
8.4169387e+19
8.5335947e+19
8.4586126e+19
8.3829111e+19
8.30684e+19
8.4078888e+19
8.3364429e+19
8.2644789e+19
8.1923228e+19
8.4384932e+19
8.3545672e+19
8.2714516e+19
8.1896794e+19
8.3368222e+19
8.2570989e+19
8.1782959e+19
8.1009482e+19
8.2308163e+19
8.1553187e+19
8.0808712e+19
8.0080124e+19
8.1203752e+19
8.0491062e+19
7.9790386e+19
7.9107169e+19
8.1097404e+19
8.0320173e+19
7.9567066e+19
7.8837299e+19
8.0255528e+19
7.9525036e+19
7.8820095e+19
7.8140027e+19
7.9372484e+19
7.8689866e+19
7.8034505e+19
7.740584e+19
7.844659e+19
7.7812883e+19
7.720845e+19
7.6632868e+19
0
0
0
0
0
0
0
0
0
0
0
0
0
0
0
0
0
0
0
0
0
0
0
0
0
0
0
0
0
0
0
0
0
0
0
0
0
0
0
0
0
0
0
0
0
0
0
0
0
0
0
0
0
0
0
0
0
0
0
0
0
0
0
0
0
0
0
0
0
0
0
0
0
0
0
0
0
0
0
0
0
0
0
0
0
0
0
0
0
0
0
0
0
0
0
0
0
0
0
0
0
0
0
0
0
0
0
0
0
0
0
0
0
0
0
0
0
0
0
0
0
0
0
0
0
0
0
0
0
0
0
0
0
0
0
0
0
0
0
0
0
0
0
0
0
0
0
0
0
0
0
0
0
0
0
0
0
0
0
0
0
0
0
0
0
0
0
0
0
0
0
0
0
0
0
0
0
0
0
0
0
0
0
0
0
0
0
0
0
0
0
0
0
0
0
0
0
0
0
0
0
0
0
0
0
0
0
0
0
0
0
0
0
0
0
0
0
0
0
0
0
0
0
0
0
0
0
0
0
0
0
0
0
0
0
0
0
0
0
0
8.7832135e+19
8.7279705e+19
8.6686805e+19
8.6067525e+19
8.6363908e+19
8.5806458e+19
8.5216238e+19
8.4606267e+19
8.4867466e+19
8.4302292e+19
8.3712167e+19
8.3109056e+19
8.3342993e+19
8.2767064e+19
8.2174112e+19
8.1575061e+19
8.5430565e+19
8.4780917e+19
8.4121329e+19
8.3453455e+19
8.3984291e+19
8.3354471e+19
8.2718842e+19
8.2078462e+19
8.2499757e+19
8.1887597e+19
8.1273902e+19
8.0659133e+19
8.0975764e+19
8.037872e+19
7.9784542e+19
7.9193096e+19
8.2778673e+19
8.2098637e+19
8.1415598e+19
8.0732589e+19
8.1434218e+19
8.0787369e+19
8.0139866e+19
7.9494526e+19
8.004369e+19
7.9428449e+19
7.8815073e+19
7.8206188e+19
7.8604305e+19
7.8018671e+19
7.7437593e+19
7.6863529e+19
8.0053468e+19
7.938287e+19
7.8726036e+19
7.8088498e+19
7.8855083e+19
7.8226132e+19
7.7612956e+19
7.702121e+19
7.7605426e+19
7.7017375e+19
7.6447403e+19
7.590133e+19
7.6300048e+19
7.5751772e+19
7.5224203e+19
7.4723385e+19
7.7475585e+19
7.6891721e+19
7.6339506e+19
7.5818676e+19
7.6456412e+19
7.5923213e+19
7.542445e+19
7.4960044e+19
7.538491e+19
7.4903075e+19
7.4458939e+19
7.405265e+19
7.4255372e+19
7.3825439e+19
7.3437041e+19
7.3090596e+19
0
0
0
0
0
0
0
0
0
0
0
0
0
0
0
0
0
0
0
0
0
0
0
0
0
0
0
0
0
0
0
0
0
0
0
0
0
0
0
0
0
0
0
0
0
0
0
0
0
0
0
0
0
0
0
0
0
0
0
0
0
0
0
0
0
0
0
0
0
0
0
0
0
0
0
0
0
0
0
0
0
0
0
0
0
0
0
0
0
0
0
0
0
0
0
0
0
0
0
0
0
0
0
0
0
0
0
0
0
0
0
0
0
0
0
0
0
0
0
0
0
0
0
0
0
0
0
0
0
0
0
0
0
0
0
0
0
0
0
0
0
0
0
0
0
0
0
0
0
0
0
0
0
0
0
0
0
0
0
0
0
0
0
0
0
0
0
0
0
0
0
0
0
0
0
0
0
0
0
0
0
0
0
0