/*--------------------------------*- C++ -*----------------------------------*\
| =========                 |                                                 |
| \\      /  F ield         | OpenFOAM: The Open Source CFD Toolbox           |
|  \\    /   O peration     | Version:  1.4.1-dev                             |
|   \\  /    A nd           | Web:      http://www.openfoam.org               |
|    \\/     M anipulation  |                                                 |
\*---------------------------------------------------------------------------*/

FoamFile
{
    version 2.0;
    format ascii;

    root "/home/cliffoi/OpenFOAM/cliffoi-1.4.1-dev/run/diffusionFoam";
    case "oecd_simplified_2G";
    instance "0";
    local "";

    class volScalarField;
    object _135I;
}

// * * * * * * * * * * * * * * * * * * * * * * * * * * * * * * * * * * * * * //

dimensions      [0 -3 0 0 0 0 0];

internalField   nonuniform List<scalar> 
9280
(
0
0
0
0
0
0
0
0
0
0
0
0
0
0
0
0
0
0
0
0
0
0
0
0
0
0
0
0
0
0
0
0
0
0
0
0
0
0
0
0
0
0
0
0
0
0
0
0
0
0
0
0
0
0
0
0
0
0
0
0
0
0
0
0
0
0
0
0
0
0
0
0
0
0
0
0
0
0
0
0
0
0
0
0
0
0
0
0
0
0
0
0
0
0
0
0
0
0
0
0
0
0
0
0
0
0
0
0
0
0
0
0
0
0
0
0
0
0
0
0
0
0
0
0
0
0
0
0
0
0
0
0
0
0
0
0
0
0
0
0
0
0
0
0
0
0
0
0
0
0
0
0
0
0
0
0
0
0
0
0
0
0
0
0
0
0
0
0
0
0
0
0
0
0
0
0
0
0
0
0
0
0
0
0
0
0
0
0
0
0
0
0
0
0
0
0
0
0
0
0
0
0
0
0
0
0
0
0
0
0
0
0
0
0
0
0
0
0
0
0
0
0
0
0
0
0
0
0
0
0
0
0
0
0
0
0
0
0
0
0
0
0
0
0
0
0
0
0
0
0
0
0
0
0
0
0
0
0
0
0
0
0
0
0
0
0
0
0
0
0
0
0
0
0
0
0
0
0
0
0
0
0
0
0
0
0
0
0
0
0
0
0
0
0
0
0
0
0
0
0
0
0
0
0
0
0
0
0
0
0
0
0
0
0
0
0
0
0
0
0
0
0
0
0
0
0
0
0
0
0
0
0
0
0
0
0
0
0
0
0
0
0
0
0
0
0
0
0
0
0
0
0
0
0
0
0
0
0
0
0
0
0
0
0
0
0
0
0
0
0
0
0
0
0
0
0
0
0
0
0
0
0
0
0
0
0
0
0
0
0
0
0
0
0
0
0
0
0
0
0
0
0
0
0
0
0
0
0
0
0
0
0
0
0
0
0
0
0
0
0
0
0
0
0
0
0
0
0
0
0
0
0
0
0
0
0
0
0
0
0
0
0
0
0
0
0
0
0
0
0
0
0
0
0
0
0
0
0
0
0
0
0
0
0
0
0
0
0
0
0
0
0
0
0
0
0
0
0
0
0
0
0
0
0
0
0
0
0
0
0
0
0
0
0
0
0
0
0
0
0
0
0
0
0
0
0
0
0
0
0
0
0
0
0
0
0
0
0
0
0
0
0
0
0
0
0
0
0
0
0
0
0
0
0
0
0
0
0
0
0
0
0
0
0
0
0
0
0
0
0
0
0
0
0
0
0
0
0
0
0
0
0
0
0
0
0
0
0
0
0
0
0
0
0
0
0
0
0
0
0
0
0
0
0
0
0
0
0
0
0
0
0
0
0
0
0
0
0
0
0
0
0
0
0
0
0
0
0
0
0
0
0
0
0
0
0
0
0
0
0
0
0
0
0
0
0
0
0
0
0
0
0
0
0
0
0
0
0
0
0
0
0
0
0
0
0
0
0
0
0
0
0
0
0
0
0
0
0
0
0
0
0
0
0
0
0
0
0
0
0
0
0
0
0
0
0
0
0
0
0
0
0
0
0
0
0
0
0
0
0
0
0
0
0
0
0
0
0
0
0
0
0
0
0
0
0
0
0
0
0
0
0
0
0
0
0
0
0
0
0
0
0
0
0
0
0
0
0
0
0
0
0
0
0
0
0
0
0
0
0
0
0
0
0
0
0
0
0
0
0
0
0
0
0
0
0
0
0
0
0
0
0
0
0
0
0
0
0
0
0
0
0
0
0
0
0
0
0
0
0
0
0
0
0
0
0
0
0
0
0
0
0
0
0
0
0
0
0
0
0
0
0
0
0
0
0
0
0
0
0
0
0
0
0
0
0
0
0
0
0
0
0
0
0
0
0
0
0
0
0
0
0
0
0
0
0
0
0
0
0
0
0
0
0
0
0
0
0
0
0
0
0
0
0
0
0
0
0
0
0
0
0
0
0
0
0
0
0
0
0
0
0
0
0
0
0
0
0
0
0
0
0
0
0
0
0
0
0
0
0
0
0
0
0
0
0
0
0
0
0
0
0
0
0
0
0
0
0
0
0
0
0
0
0
0
0
0
0
0
0
0
0
0
0
0
0
0
0
0
0
0
0
0
0
0
0
0
0
0
0
0
0
0
0
0
0
0
0
0
0
0
0
0
0
0
0
0
0
0
0
0
0
0
0
0
0
0
0
0
0
0
0
0
0
0
0
0
0
0
0
0
0
0
0
0
0
0
0
0
0
0
0
0
0
0
0
0
0
0
0
0
0
0
0
0
0
0
0
0
0
0
0
0
0
0
0
0
0
0
0
0
0
0
0
0
0
0
0
0
0
0
0
0
0
0
0
0
0
0
0
0
0
0
0
0
0
0
0
0
0
0
0
0
0
0
0
2.9971272e+20
2.8652369e+20
2.7660395e+20
2.689844e+20
3.0601869e+20
2.8795931e+20
2.7419721e+20
2.6360611e+20
3.2085706e+20
2.9963907e+20
2.8331519e+20
2.7067838e+20
3.3879014e+20
3.1527163e+20
2.9708578e+20
2.8295402e+20
2.6297818e+20
2.5809562e+20
2.5398833e+20
2.5041172e+20
2.5535196e+20
2.4882064e+20
2.4356448e+20
2.3926311e+20
2.6082236e+20
2.5307064e+20
2.4692354e+20
2.4201909e+20
2.7191343e+20
2.6324231e+20
2.564051e+20
2.5101177e+20
2.4719974e+20
2.442479e+20
2.4150244e+20
2.3895412e+20
2.356954e+20
2.3271986e+20
2.3026159e+20
2.2830471e+20
2.3810444e+20
2.3501559e+20
2.3266371e+20
2.3102689e+20
2.4678818e+20
2.4355503e+20
2.4121361e+20
2.3973711e+20
2.3663593e+20
2.3462455e+20
2.3304558e+20
2.3208341e+20
2.2688934e+20
2.2611287e+20
2.261354e+20
2.2718971e+20
2.3014662e+20
2.3012862e+20
2.3114772e+20
2.3345723e+20
2.3916684e+20
2.3961278e+20
2.4125856e+20
2.4437081e+20
2.319972e+20
2.3314563e+20
2.3602511e+20
2.4132963e+20
2.2959634e+20
2.3378449e+20
2.4031976e+20
2.4993926e+20
2.3740297e+20
2.4344269e+20
2.5217181e+20
2.6435671e+20
2.4931359e+20
2.5656849e+20
2.6676167e+20
2.8069952e+20
0
0
0
0
0
0
0
0
0
0
0
0
0
0
0
0
0
0
0
0
0
0
0
0
0
0
0
0
0
0
0
0
0
0
0
0
0
0
0
0
0
0
0
0
0
0
0
0
0
0
0
0
0
0
0
0
0
0
0
0
0
0
0
0
0
0
0
0
0
0
0
0
0
0
0
0
0
0
0
0
0
0
0
0
0
0
0
0
0
0
0
0
0
0
0
0
0
0
0
0
0
0
0
0
0
0
0
0
0
0
0
0
0
0
0
0
0
0
0
0
0
0
0
0
0
0
0
0
0
0
0
0
0
0
0
0
0
0
0
0
0
0
0
0
0
0
0
0
0
0
0
0
0
0
0
0
0
0
0
0
0
0
0
0
0
0
0
0
0
0
0
0
0
0
0
0
0
0
0
0
0
0
0
0
0
0
0
0
0
0
0
0
0
0
0
0
0
0
0
0
0
0
0
0
0
0
0
0
0
0
0
0
0
0
0
0
0
0
0
0
0
0
0
0
0
0
0
0
0
0
0
0
0
0
0
0
0
0
0
0
3.5747514e+20
3.3211406e+20
3.1245001e+20
2.9713635e+20
3.7587943e+20
3.4894373e+20
3.2802594e+20
3.117149e+20
3.9355326e+20
3.6521747e+20
3.4319001e+20
3.2599924e+20
4.1031191e+20
3.8070289e+20
3.5766852e+20
3.3968078e+20
2.8515817e+20
2.7575396e+20
2.6835769e+20
2.6255618e+20
2.9894693e+20
2.889235e+20
2.8105063e+20
2.7489427e+20
3.1253567e+20
3.0196613e+20
2.9367058e+20
2.8719556e+20
3.2558741e+20
3.145229e+20
3.0584284e+20
2.9907569e+20
2.5805816e+20
2.5467219e+20
2.5229178e+20
2.5088632e+20
2.7014788e+20
2.6660941e+20
2.6416576e+20
2.627833e+20
2.8222049e+20
2.7853364e+20
2.7601602e+20
2.7463152e+20
2.9388778e+20
2.9005847e+20
2.8746339e+20
2.8606428e+20
2.5049708e+20
2.5123781e+20
2.5329993e+20
2.5696242e+20
2.6250375e+20
2.6344488e+20
2.6580599e+20
2.6987836e+20
2.7442265e+20
2.7551139e+20
2.7810492e+20
2.8250669e+20
2.8590465e+20
2.8711066e+20
2.898972e+20
2.9457947e+20
2.6260699e+20
2.7073942e+20
2.8201842e+20
2.9729376e+20
2.7606136e+20
2.84885e+20
2.970405e+20
3.1342074e+20
2.8913333e+20
2.9853843e+20
3.1144464e+20
3.2878629e+20
3.0159066e+20
3.1150685e+20
3.2508057e+20
3.4328538e+20
0
0
0
0
0
0
0
0
0
0
0
0
0
0
0
0
0
0
0
0
0
0
0
0
0
0
0
0
0
0
0
0
0
0
0
0
0
0
0
0
0
0
0
0
0
0
0
0
0
0
0
0
0
0
0
0
0
0
0
0
0
0
0
0
0
0
0
0
0
0
0
0
0
0
0
0
0
0
0
0
0
0
0
0
0
0
0
0
0
0
0
0
0
0
0
0
0
0
0
0
0
0
0
0
0
0
0
0
0
0
0
0
0
0
0
0
0
0
0
0
0
0
0
0
0
0
0
0
0
0
0
0
0
0
0
0
0
0
0
0
0
0
0
0
0
0
0
0
0
0
0
0
0
0
0
0
0
0
0
0
0
0
0
0
0
0
0
0
0
0
0
0
0
0
0
0
0
0
0
0
0
0
0
0
0
0
0
0
0
0
0
0
0
0
0
0
0
0
0
0
0
0
0
0
0
0
0
0
0
0
0
0
0
0
0
0
0
0
0
0
0
0
0
0
0
0
0
0
0
0
0
0
0
0
0
0
0
0
0
0
4.2609287e+20
3.9531199e+20
3.7135149e+20
3.5263097e+20
4.4089066e+20
4.0902476e+20
3.8420652e+20
3.6480707e+20
4.5472674e+20
4.2185356e+20
3.9623843e+20
3.7620769e+20
4.6763527e+20
4.3382622e+20
4.074699e+20
3.8685142e+20
3.3795843e+20
3.2643825e+20
3.1740331e+20
3.1036524e+20
3.4959758e+20
3.3765448e+20
3.2828959e+20
3.2099886e+20
3.6049849e+20
3.4816139e+20
3.3848869e+20
3.3096181e+20
3.7067651e+20
3.5797184e+20
3.4801168e+20
3.40264e+20
3.0497819e+20
3.0101325e+20
2.9834107e+20
2.9692152e+20
3.1542515e+20
3.1133182e+20
3.0858498e+20
3.0714273e+20
3.2521311e+20
3.2099882e+20
3.1818079e+20
3.1671554e+20
3.3435143e+20
3.3002358e+20
3.2713835e+20
3.2565078e+20
2.9679912e+20
2.981041e+20
3.0105873e+20
3.0598935e+20
3.0705065e+20
3.084428e+20
3.1154839e+20
3.1670427e+20
3.166496e+20
3.1812065e+20
3.2136439e+20
3.2672747e+20
3.256083e+20
3.2715196e+20
3.3052348e+20
3.3607864e+20
3.1334485e+20
3.237225e+20
3.3790296e+20
3.5689665e+20
3.2437404e+20
3.3517483e+20
3.4991364e+20
3.6963532e+20
3.3468722e+20
3.4587932e+20
3.6113529e+20
3.8153208e+20
3.4430751e+20
3.5586303e+20
3.7159951e+20
3.9262378e+20
0
0
0
0
0
0
0
0
0
0
0
0
0
0
0
0
0
0
0
0
0
0
0
0
0
0
0
0
0
0
0
0
0
0
0
0
0
0
0
0
0
0
0
0
0
0
0
0
0
0
0
0
0
0
0
0
0
0
0
0
0
0
0
0
0
0
0
0
0
0
0
0
0
0
0
0
0
0
0
0
0
0
0
0
0
0
0
0
0
0
0
0
0
0
0
0
0
0
0
0
0
0
0
0
0
0
0
0
0
0
0
0
0
0
0
0
0
0
0
0
0
0
0
0
0
0
0
0
0
0
0
0
0
0
0
0
0
0
0
0
0
0
0
0
0
0
0
0
0
0
0
0
0
0
0
0
0
0
0
0
0
0
0
0
0
0
0
0
0
0
0
0
0
0
0
0
0
0
0
0
0
0
0
0
0
0
0
0
0
0
0
0
0
0
0
0
0
0
0
0
0
0
0
0
0
0
0
0
0
0
0
0
0
0
0
0
0
0
0
0
0
0
0
0
0
0
0
0
0
0
0
0
0
0
0
0
0
0
0
0
4.7965629e+20
4.4497782e+20
4.1793216e+20
3.9676644e+20
4.9083219e+20
4.5534662e+20
4.2766025e+20
4.0598532e+20
5.0120597e+20
4.6497191e+20
4.3669063e+20
4.1454235e+20
5.1082009e+20
4.7389275e+20
4.4505977e+20
4.2247204e+20
3.8015746e+20
3.6710989e+20
3.5688131e+20
3.489273e+20
3.8897203e+20
3.7560476e+20
3.6512578e+20
3.5697917e+20
3.9715284e+20
3.8348785e+20
3.7277552e+20
3.6444937e+20
4.0473291e+20
3.9079104e+20
3.7986156e+20
3.7136829e+20
3.4286149e+20
3.3842732e+20
3.3547907e+20
3.3397038e+20
3.5077026e+20
3.4623682e+20
3.4322972e+20
3.4170133e+20
3.5810706e+20
3.5348112e+20
3.5041927e+20
3.4887268e+20
3.6490184e+20
3.6018986e+20
3.570772e+20
3.5551389e+20
3.3394951e+20
3.3556061e+20
3.39051e+20
3.447849e+20
3.4170066e+20
3.4337472e+20
3.46976e+20
3.5287651e+20
3.4889104e+20
3.5062398e+20
3.5432878e+20
3.6038464e+20
3.5555024e+20
3.5733829e+20
3.611397e+20
3.6734031e+20
3.5326423e+20
3.651579e+20
3.8134139e+20
4.0294925e+20
3.6158914e+20
3.7379759e+20
3.9039697e+20
4.125475e+20
3.6931456e+20
3.8181594e+20
3.9880201e+20
4.2145675e+20
3.7647247e+20
3.8924618e+20
4.0659143e+20
4.2971415e+20
0
0
0
0
0
0
0
0
0
0
0
0
0
0
0
0
0
0
0
0
0
0
0
0
0
0
0
0
0
0
0
0
0
0
0
0
0
0
0
0
0
0
0
0
0
0
0
0
0
0
0
0
0
0
0
0
0
0
0
0
0
0
0
0
0
0
0
0
0
0
0
0
0
0
0
0
0
0
0
0
0
0
0
0
0
0
0
0
0
0
0
0
0
0
0
0
0
0
0
0
0
0
0
0
0
0
0
0
0
0
0
0
0
0
0
0
0
0
0
0
0
0
0
0
0
0
0
0
0
0
0
0
0
0
0
0
0
0
0
0
0
0
0
0
0
0
0
0
0
0
0
0
0
0
0
0
0
0
0
0
0
0
0
0
0
0
0
0
0
0
0
0
0
0
0
0
0
0
0
0
0
0
0
0
0
0
0
0
0
0
0
0
0
0
0
0
0
0
0
0
0
0
0
0
0
0
0
0
0
0
0
0
0
0
0
0
0
0
0
0
0
0
0
0
0
0
0
0
0
0
0
0
0
0
0
0
0
0
0
0
5.1971597e+20
4.8214736e+20
4.5280347e+20
4.2980834e+20
5.2793349e+20
4.8977263e+20
4.5995635e+20
4.3658413e+20
5.3551078e+20
4.9680387e+20
4.6655157e+20
4.4283095e+20
5.4248405e+20
5.0327464e+20
4.7262066e+20
4.4857876e+20
4.1174479e+20
3.9754578e+20
3.8641455e+20
3.7776599e+20
4.1822002e+20
4.0378264e+20
3.9246428e+20
3.8367165e+20
4.241889e+20
4.0953092e+20
3.9803931e+20
3.8911328e+20
4.2968021e+20
4.148185e+20
4.0316683e+20
3.9411754e+20
3.7118418e+20
3.6639235e+20
3.6323263e+20
3.6165402e+20
3.7698287e+20
3.7211704e+20
3.6891382e+20
3.6732125e+20
3.8232547e+20
3.773912e+20
3.7414786e+20
3.7254258e+20
3.8723824e+20
3.822408e+20
3.7896052e+20
3.7734368e+20
3.6170738e+20
3.6354697e+20
3.6743845e+20
3.737738e+20
3.6739068e+20
3.6927839e+20
3.7325373e+20
3.7971428e+20
3.7262715e+20
3.745597e+20
3.7861296e+20
3.8518965e+20
3.7744247e+20
3.7941671e+20
3.835422e+20
3.9022638e+20
3.8309393e+20
3.961205e+20
4.1379892e+20
4.3735539e+20
3.8920887e+20
4.0246985e+20
4.2045684e+20
4.4441468e+20
3.9484584e+20
4.0832372e+20
4.2659598e+20
4.5092461e+20
4.0003196e+20
4.1371015e+20
4.322456e+20
4.5691604e+20
0
0
0
0
0
0
0
0
0
0
0
0
0
0
0
0
0
0
0
0
0
0
0
0
0
0
0
0
0
0
0
0
0
0
0
0
0
0
0
0
0
0
0
0
0
0
0
0
0
0
0
0
0
0
0
0
0
0
0
0
0
0
0
0
0
0
0
0
0
0
0
0
0
0
0
0
0
0
0
0
0
0
0
0
0
0
0
0
0
0
0
0
0
0
0
0
0
0
0
0
0
0
0
0
0
0
0
0
0
0
0
0
0
0
0
0
0
0
0
0
0
0
0
0
0
0
0
0
0
0
0
0
0
0
0
0
0
0
0
0
0
0
0
0
0
0
0
0
0
0
0
0
0
0
0
0
0
0
0
0
0
0
0
0
0
0
0
0
0
0
0
0
0
0
0
0
0
0
0
0
0
0
0
0
0
0
0
0
0
0
0
0
0
0
0
0
0
0
0
0
0
0
0
0
0
0
0
0
0
0
0
0
0
0
0
0
0
0
0
0
0
0
0
0
0
0
0
0
0
0
0
0
0
0
0
0
0
0
0
0
5.4888749e+20
5.0921664e+20
4.7819342e+20
4.5385592e+20
5.5475318e+20
5.1465962e+20
4.8329782e+20
4.5868902e+20
5.601111e+20
5.1963139e+20
4.8796002e+20
4.6310294e+20
5.6498908e+20
5.241578e+20
4.9220429e+20
4.6712077e+20
4.3472116e+20
4.1967174e+20
4.0787252e+20
3.9870957e+20
4.3933731e+20
4.2411537e+20
4.1218049e+20
4.0291304e+20
4.4355254e+20
4.281725e+20
4.1611325e+20
4.0674998e+20
4.4738902e+20
4.3186461e+20
4.1969174e+20
4.1024091e+20
3.9174594e+20
3.8669033e+20
3.833761e+20
3.8174876e+20
3.9587188e+20
3.9076282e+20
3.8741746e+20
3.8578061e+20
3.9963775e+20
3.9447973e+20
3.9110591e+20
3.8946045e+20
4.0306374e+20
3.9786102e+20
3.9446126e+20
3.9280803e+20
3.8186087e+20
3.8387376e+20
3.8806605e+20
3.9484948e+20
3.8590513e+20
3.8795374e+20
3.9220762e+20
3.9908244e+20
3.8959649e+20
3.91678e+20
3.9598849e+20
4.0294719e+20
3.9295471e+20
3.950664e+20
3.9942873e+20
4.0646413e+20
4.0479283e+20
4.1865556e+20
4.3743328e+20
4.6241813e+20
4.0915251e+20
4.231848e+20
4.4218494e+20
4.6745826e+20
4.1313344e+20
4.2732107e+20
4.4652482e+20
4.7206201e+20
4.1675653e+20
4.3108597e+20
4.5047547e+20
4.7625323e+20
0
0
0
0
0
0
0
0
0
0
0
0
0
0
0
0
0
0
0
0
0
0
0
0
0
0
0
0
0
0
0
0
0
0
0
0
0
0
0
0
0
0
0
0
0
0
0
0
0
0
0
0
0
0
0
0
0
0
0
0
0
0
0
0
0
0
0
0
0
0
0
0
0
0
0
0
0
0
0
0
0
0
0
0
0
0
0
0
0
0
0
0
0
0
0
0
0
0
0
0
0
0
0
0
0
0
0
0
0
0
0
0
0
0
0
0
0
0
0
0
0
0
0
0
0
0
0
0
0
0
0
0
0
0
0
0
0
0
0
0
0
0
0
0
0
0
0
0
0
0
0
0
0
0
0
0
0
0
0
0
0
0
0
0
0
0
0
0
0
0
0
0
0
0
0
0
0
0
0
0
0
0
0
0
0
0
0
0
0
0
0
0
0
0
0
0
0
0
0
0
0
0
0
0
0
0
0
0
0
0
0
0
0
0
0
0
0
0
0
0
0
0
0
0
0
0
0
0
0
0
0
0
0
0
0
0
0
0
0
0
5.6941288e+20
5.2826272e+20
4.9605311e+20
4.7076386e+20
5.7340614e+20
5.3196813e+20
4.9952713e+20
4.7405187e+20
5.7699049e+20
5.3529406e+20
5.0264519e+20
4.770027e+20
5.8018554e+20
5.3825875e+20
5.0542442e+20
4.7963264e+20
4.5086726e+20
4.3521152e+20
4.2293527e+20
4.1340476e+20
4.540061e+20
4.3823148e+20
4.258616e+20
4.1625892e+20
4.5682274e+20
4.4094113e+20
4.2848695e+20
4.1881927e+20
4.5933281e+20
4.4335557e+20
4.3082602e+20
4.2110023e+20
4.061685e+20
4.0092511e+20
3.975018e+20
3.9584157e+20
4.0896914e+20
4.0368895e+20
4.0024434e+20
3.9857784e+20
4.1148131e+20
4.0616798e+20
4.0270423e+20
4.0103212e+20
4.1371918e+20
4.0837624e+20
4.048954e+20
4.0321831e+20
3.9599803e+20
3.9813729e+20
4.0254687e+20
4.0965214e+20
3.9874322e+20
4.0090753e+20
4.0535998e+20
4.1252855e+20
4.0120561e+20
4.0339253e+20
4.0788364e+20
4.1510924e+20
4.0339909e+20
4.0560629e+20
4.10132e+20
4.174086e+20
4.2004112e+20
4.3449949e+20
4.5405774e+20
4.8005394e+20
4.23005e+20
4.3758002e+20
4.5729086e+20
4.8348447e+20
4.256644e+20
4.4034437e+20
4.6019239e+20
4.8656338e+20
4.2803413e+20
4.4280782e+20
4.6277831e+20
4.8930757e+20
0
0
0
0
0
0
0
0
0
0
0
0
0
0
0
0
0
0
0
0
0
0
0
0
0
0
0
0
0
0
0
0
0
0
0
0
0
0
0
0
0
0
0
0
0
0
0
0
0
0
0
0
0
0
0
0
0
0
0
0
0
0
0
0
0
0
0
0
0
0
0
0
0
0
0
0
0
0
0
0
0
0
0
0
0
0
0
0
0
0
0
0
0
0
0
0
0
0
0
0
0
0
0
0
0
0
0
0
0
0
0
0
0
0
0
0
0
0
0
0
0
0
0
0
0
0
0
0
0
0
0
0
0
0
0
0
0
0
0
0
0
0
0
0
0
0
0
0
0
0
0
0
0
0
0
0
0
0
0
0
0
0
0
0
0
0
0
0
0
0
0
0
0
0
0
0
0
0
0
0
0
0
0
0
0
0
0
0
0
0
0
0
0
0
0
0
0
0
0
0
0
0
0
0
0
0
0
0
0
0
0
0
0
0
0
0
0
0
0
0
0
0
0
0
0
0
0
0
0
0
0
0
0
0
0
0
0
0
0
0
5.8300894e+20
5.4087858e+20
5.0788023e+20
4.8195632e+20
5.8547645e+20
5.4316818e+20
5.1002638e+20
4.8398684e+20
5.8760197e+20
5.4514044e+20
5.1187499e+20
4.8573569e+20
5.8939757e+20
5.4680659e+20
5.1343659e+20
4.8721291e+20
4.6155035e+20
4.4548839e+20
4.3289206e+20
4.2311475e+20
4.6348791e+20
4.4735173e+20
4.3469686e+20
4.248744e+20
4.6515654e+20
4.4895626e+20
4.3625082e+20
4.2638934e+20
4.6656584e+20
4.5031127e+20
4.3756299e+20
4.2766845e+20
4.156955e+20
4.1032632e+20
4.0683035e+20
4.0514889e+20
4.1742167e+20
4.1202949e+20
4.0852028e+20
4.06835e+20
4.1890769e+20
4.1349565e+20
4.0997501e+20
4.0828647e+20
4.2016228e+20
4.1473342e+20
4.1120311e+20
4.0951181e+20
4.0533617e+20
4.0756138e+20
4.1211779e+20
4.1943961e+20
4.0702802e+20
4.0926904e+20
4.1385239e+20
4.2121385e+20
4.0848446e+20
4.1073917e+20
4.1534581e+20
4.2274152e+20
4.0971405e+20
4.1198039e+20
4.1660678e+20
4.2403153e+20
4.3012747e+20
4.4498415e+20
4.6506301e+20
4.9173224e+20
4.3195631e+20
4.4688565e+20
4.6705934e+20
4.9385102e+20
4.3353114e+20
4.4852318e+20
4.6877866e+20
4.9567589e+20
4.3486107e+20
4.4990619e+20
4.7023086e+20
4.9721732e+20
0
0
0
0
0
0
0
0
0
0
0
0
0
0
0
0
0
0
0
0
0
0
0
0
0
0
0
0
0
0
0
0
0
0
0
0
0
0
0
0
0
0
0
0
0
0
0
0
0
0
0
0
0
0
0
0
0
0
0
0
0
0
0
0
0
0
0
0
0
0
0
0
0
0
0
0
0
0
0
0
0
0
0
0
0
0
0
0
0
0
0
0
0
0
0
0
0
0
0
0
0
0
0
0
0
0
0
0
0
0
0
0
0
0
0
0
0
0
0
0
0
0
0
0
0
0
0
0
0
0
0
0
0
0
0
0
0
0
0
0
0
0
0
0
0
0
0
0
0
0
0
0
0
0
0
0
0
0
0
0
0
0
0
0
0
0
0
0
0
0
0
0
0
0
0
0
0
0
0
0
0
0
0
0
0
0
0
0
0
0
0
0
0
0
0
0
0
0
0
0
0
0
0
0
0
0
0
0
0
0
0
0
0
0
0
0
0
0
0
0
0
0
0
0
0
0
0
0
0
0
0
0
0
0
0
0
0
0
0
0
5.9087355e+20
5.4817618e+20
5.1472019e+20
4.8842703e+20
5.9203849e+20
5.4925719e+20
5.1573326e+20
4.8938516e+20
5.9289926e+20
5.5005598e+20
5.1648181e+20
4.90093e+20
5.9346106e+20
5.5057739e+20
5.1697036e+20
4.9055486e+20
4.67724e+20
4.5142468e+20
4.3864107e+20
4.2871926e+20
4.6863785e+20
4.5230309e+20
4.3949148e+20
4.2954805e+20
4.6931283e+20
4.5295175e+20
4.4011933e+20
4.3015984e+20
4.6975309e+20
4.5337467e+20
4.4052853e+20
4.3055843e+20
4.2119287e+20
4.1575014e+20
4.1221186e+20
4.1051831e+20
4.2200564e+20
4.1655192e+20
4.1300733e+20
4.1131203e+20
4.2260551e+20
4.1714363e+20
4.1359438e+20
4.1189779e+20
4.2299625e+20
4.1752899e+20
4.1397668e+20
4.1227927e+20
4.1072407e+20
4.1300003e+20
4.1764274e+20
4.2509143e+20
4.1152061e+20
4.1380421e+20
4.1845987e+20
4.2592754e+20
4.121085e+20
4.1439782e+20
4.1906312e+20
4.2654492e+20
4.1249142e+20
4.1478456e+20
4.1945626e+20
4.269474e+20
4.3595389e+20
4.5104272e+20
4.7142434e+20
4.9848423e+20
4.3681608e+20
4.519395e+20
4.7236616e+20
4.9948406e+20
4.3745283e+20
4.5260191e+20
4.7306194e+20
5.0022276e+20
4.3786807e+20
4.5303403e+20
4.7351594e+20
5.0070487e+20
0
0
0
0
0
0
0
0
0
0
0
0
0
0
0
0
0
0
0
0
0
0
0
0
0
0
0
0
0
0
0
0
0
0
0
0
0
0
0
0
0
0
0
0
0
0
0
0
0
0
0
0
0
0
0
0
0
0
0
0
0
0
0
0
0
0
0
0
0
0
0
0
0
0
0
0
0
0
0
0
0
0
0
0
0
0
0
0
0
0
0
0
0
0
0
0
0
0
0
0
0
0
0
0
0
0
0
0
0
0
0
0
0
0
0
0
0
0
0
0
0
0
0
0
0
0
0
0
0
0
0
0
0
0
0
0
0
0
0
0
0
0
0
0
0
0
0
0
0
0
0
0
0
0
0
0
0
0
0
0
0
0
0
0
0
0
0
0
0
0
0
0
0
0
0
0
0
0
0
0
0
0
0
0
0
0
0
0
0
0
0
0
0
0
0
0
0
0
0
0
0
0
0
0
0
0
0
0
0
0
0
0
0
0
0
0
0
0
0
0
0
0
0
0
0
0
0
0
0
0
0
0
0
0
0
0
0
0
0
0
5.9372742e+20
5.5082471e+20
5.1720202e+20
4.9077368e+20
5.937003e+20
5.5079974e+20
5.1717848e+20
4.9075106e+20
5.9337997e+20
5.5050275e+20
5.1689998e+20
4.9048724e+20
5.9276515e+20
5.4993255e+20
5.1636541e+20
4.8998115e+20
4.6996144e+20
4.5357457e+20
4.4072171e+20
4.307464e+20
4.6993941e+20
4.5355291e+20
4.407003e+20
4.3072517e+20
4.6968723e+20
4.5330993e+20
4.4046453e+20
4.3049494e+20
4.6920387e+20
4.5284462e+20
4.400134e+20
4.3005474e+20
4.2318038e+20
4.177105e+20
4.1415673e+20
4.1245897e+20
4.2315928e+20
4.1768953e+20
4.1413588e+20
4.1243823e+20
4.2293317e+20
4.1746628e+20
4.1391432e+20
4.1221725e+20
4.2250109e+20
4.1703981e+20
4.1349114e+20
4.1179511e+20
4.1267188e+20
4.1496695e+20
4.1964184e+20
4.2713758e+20
4.1265123e+20
4.1494636e+20
4.1962126e+20
4.271169e+20
4.1242968e+20
4.14723e+20
4.1939471e+20
4.2688557e+20
4.120063e+20
4.1429595e+20
4.1896128e+20
4.2644263e+20
4.380645e+20
4.5323864e+20
4.7373109e+20
5.0093347e+20
4.3804357e+20
4.5321726e+20
4.7370898e+20
5.0091024e+20
4.3780552e+20
4.5297015e+20
4.7344988e+20
5.0063548e+20
4.3734937e+20
4.5249628e+20
4.7295272e+20
5.0010806e+20
0
0
0
0
0
0
0
0
0
0
0
0
0
0
0
0
0
0
0
0
0
0
0
0
0
0
0
0
0
0
0
0
0
0
0
0
0
0
0
0
0
0
0
0
0
0
0
0
0
0
0
0
0
0
0
0
0
0
0
0
0
0
0
0
0
0
0
0
0
0
0
0
0
0
0
0
0
0
0
0
0
0
0
0
0
0
0
0
0
0
0
0
0
0
0
0
0
0
0
0
0
0
0
0
0
0
0
0
0
0
0
0
0
0
0
0
0
0
0
0
0
0
0
0
0
0
0
0
0
0
0
0
0
0
0
0
0
0
0
0
0
0
0
0
0
0
0
0
0
0
0
0
0
0
0
0
0
0
0
0
0
0
0
0
0
0
0
0
0
0
0
0
0
0
0
0
0
0
0
0
0
0
0
0
0
0
0
0
0
0
0
0
0
0
0
0
0
0
0
0
0
0
0
0
0
0
0
0
0
0
0
0
0
0
0
0
0
0
0
0
0
0
0
0
0
0
0
0
0
0
0
0
0
0
0
0
0
0
0
0
5.9185291e+20
5.4908644e+20
5.1557223e+20
4.8923037e+20
5.9063875e+20
5.479602e+20
5.1451648e+20
4.8823115e+20
5.8911653e+20
5.4654818e+20
5.1319283e+20
4.8697842e+20
5.8727848e+20
5.4484314e+20
5.115945e+20
4.8546573e+20
4.6848701e+20
4.5215473e+20
4.3934473e+20
4.2940243e+20
4.6753304e+20
4.5123679e+20
4.3845513e+20
4.2853468e+20
4.663371e+20
4.5008606e+20
4.3734e+20
4.2744699e+20
4.6489299e+20
4.4869656e+20
4.359935e+20
4.2613365e+20
4.2186092e+20
4.1640802e+20
4.1286425e+20
4.1116973e+20
4.210094e+20
4.1556769e+20
4.1203044e+20
4.1033792e+20
4.1994208e+20
4.1451442e+20
4.1098534e+20
4.0929531e+20
4.1865334e+20
4.1324264e+20
4.0972344e+20
4.0803642e+20
4.1137901e+20
4.1366311e+20
4.1831885e+20
4.2578595e+20
4.1054461e+20
4.1282126e+20
4.1746415e+20
4.2491221e+20
4.0949874e+20
4.1176601e+20
4.1639275e+20
4.2381688e+20
4.082359e+20
4.1049182e+20
4.1509904e+20
4.2249426e+20
4.3667294e+20
4.517934e+20
4.7221515e+20
4.9932549e+20
4.357728e+20
4.5085797e+20
4.7123347e+20
4.9828387e+20
4.3464433e+20
4.4968522e+20
4.7000268e+20
4.9697791e+20
4.3328168e+20
4.4826907e+20
4.6851645e+20
4.954009e+20
0
0
0
0
0
0
0
0
0
0
0
0
0
0
0
0
0
0
0
0
0
0
0
0
0
0
0
0
0
0
0
0
0
0
0
0
0
0
0
0
0
0
0
0
0
0
0
0
0
0
0
0
0
0
0
0
0
0
0
0
0
0
0
0
0
0
0
0
0
0
0
0
0
0
0
0
0
0
0
0
0
0
0
0
0
0
0
0
0
0
0
0
0
0
0
0
0
0
0
0
0
0
0
0
0
0
0
0
0
0
0
0
0
0
0
0
0
0
0
0
0
0
0
0
0
0
0
0
0
0
0
0
0
0
0
0
0
0
0
0
0
0
0
0
0
0
0
0
0
0
0
0
0
0
0
0
0
0
0
0
0
0
0
0
0
0
0
0
0
0
0
0
0
0
0
0
0
0
0
0
0
0
0
0
0
0
0
0
0
0
0
0
0
0
0
0
0
0
0
0
0
0
0
0
0
0
0
0
0
0
0
0
0
0
0
0
0
0
0
0
0
0
0
0
0
0
0
0
0
0
0
0
0
0
0
0
0
0
0
0
5.8511521e+20
5.4283637e+20
5.0971328e+20
4.8368527e+20
5.8261563e+20
5.4051759e+20
5.0753951e+20
4.8162786e+20
5.7976701e+20
5.3787497e+20
5.0506208e+20
4.7928293e+20
5.7655489e+20
5.3489509e+20
5.0226835e+20
4.7663848e+20
4.6319323e+20
4.4706106e+20
4.3440859e+20
4.2458774e+20
4.61229e+20
4.4517102e+20
4.3257695e+20
4.2280112e+20
4.5899015e+20
4.4301662e+20
4.3048901e+20
4.2076441e+20
4.5646516e+20
4.405867e+20
4.281339e+20
4.1846697e+20
4.1713638e+20
4.1174564e+20
4.0823804e+20
4.0655456e+20
4.1538318e+20
4.1001548e+20
4.0652129e+20
4.0484189e+20
4.133845e+20
4.0804301e+20
4.0456409e+20
4.0288935e+20
4.1112985e+20
4.0581788e+20
4.0235615e+20
4.0068668e+20
4.0674938e+20
4.0899197e+20
4.1357622e+20
4.2093741e+20
4.0503135e+20
4.0725853e+20
4.1181628e+20
4.191382e+20
4.0307272e+20
4.052824e+20
4.0980999e+20
4.1708722e+20
4.0086322e+20
4.0305322e+20
4.0754689e+20
4.1477382e+20
4.3167773e+20
4.4660217e+20
4.667671e+20
4.9354471e+20
4.2982413e+20
4.4467588e+20
4.6474556e+20
4.9139979e+20
4.2771124e+20
4.4248023e+20
4.6244145e+20
4.8895513e+20
4.2532814e+20
4.4000391e+20
4.5984293e+20
4.8619821e+20
0
0
0
0
0
0
0
0
0
0
0
0
0
0
0
0
0
0
0
0
0
0
0
0
0
0
0
0
0
0
0
0
0
0
0
0
0
0
0
0
0
0
0
0
0
0
0
0
0
0
0
0
0
0
0
0
0
0
0
0
0
0
0
0
0
0
0
0
0
0
0
0
0
0
0
0
0
0
0
0
0
0
0
0
0
0
0
0
0
0
0
0
0
0
0
0
0
0
0
0
0
0
0
0
0
0
0
0
0
0
0
0
0
0
0
0
0
0
0
0
0
0
0
0
0
0
0
0
0
0
0
0
0
0
0
0
0
0
0
0
0
0
0
0
0
0
0
0
0
0
0
0
0
0
0
0
0
0
0
0
0
0
0
0
0
0
0
0
0
0
0
0
0
0
0
0
0
0
0
0
0
0
0
0
0
0
0
0
0
0
0
0
0
0
0
0
0
0
0
0
0
0
0
0
0
0
0
0
0
0
0
0
0
0
0
0
0
0
0
0
0
0
0
0
0
0
0
0
0
0
0
0
0
0
0
0
0
0
0
0
5.729631e+20
5.3156296e+20
4.9914422e+20
4.7368108e+20
5.6897373e+20
5.2786192e+20
4.9567405e+20
4.7039585e+20
5.6456713e+20
5.2377375e+20
4.9184066e+20
4.6676646e+20
5.5972188e+20
5.1927856e+20
4.8762536e+20
4.6277509e+20
4.5364114e+20
4.3786879e+20
4.2549946e+20
4.1589687e+20
4.5050379e+20
4.3484904e+20
4.2257221e+20
4.1304089e+20
4.4703742e+20
4.3151226e+20
4.1933731e+20
4.0988449e+20
4.4322492e+20
4.2784187e+20
4.1577861e+20
4.0641183e+20
4.086075e+20
4.0332847e+20
3.9988594e+20
3.9822237e+20
4.0580442e+20
4.0056189e+20
3.9714066e+20
3.9548367e+20
4.0270629e+20
3.9750397e+20
3.9410622e+20
3.9245652e+20
3.992975e+20
3.9413926e+20
3.9076729e+20
3.8912562e+20
3.9839132e+20
4.005594e+20
4.0501525e+20
4.1218606e+20
3.9564425e+20
3.9778809e+20
4.0220208e+20
4.0931072e+20
3.9260795e+20
3.9472515e+20
3.9909306e+20
4.0613325e+20
3.8926708e+20
3.9135514e+20
3.956726e+20
4.0263776e+20
4.2266258e+20
4.3723428e+20
4.5693679e+20
4.8311508e+20
4.1970102e+20
4.3415729e+20
4.5370837e+20
4.7969023e+20
4.1642852e+20
4.3075753e+20
4.5014156e+20
4.7590663e+20
4.1282882e+20
4.2701818e+20
4.4621878e+20
4.7174571e+20
0
0
0
0
0
0
0
0
0
0
0
0
0
0
0
0
0
0
0
0
0
0
0
0
0
0
0
0
0
0
0
0
0
0
0
0
0
0
0
0
0
0
0
0
0
0
0
0
0
0
0
0
0
0
0
0
0
0
0
0
0
0
0
0
0
0
0
0
0
0
0
0
0
0
0
0
0
0
0
0
0
0
0
0
0
0
0
0
0
0
0
0
0
0
0
0
0
0
0
0
0
0
0
0
0
0
0
0
0
0
0
0
0
0
0
0
0
0
0
0
0
0
0
0
0
0
0
0
0
0
0
0
0
0
0
0
0
0
0
0
0
0
0
0
0
0
0
0
0
0
0
0
0
0
0
0
0
0
0
0
0
0
0
0
0
0
0
0
0
0
0
0
0
0
0
0
0
0
0
0
0
0
0
0
0
0
0
0
0
0
0
0
0
0
0
0
0
0
0
0
0
0
0
0
0
0
0
0
0
0
0
0
0
0
0
0
0
0
0
0
0
0
0
0
0
0
0
0
0
0
0
0
0
0
0
0
0
0
0
0
5.5441484e+20
5.1435483e+20
4.8300789e+20
4.5840248e+20
5.4862113e+20
5.089795e+20
4.7796652e+20
4.5362791e+20
5.4231422e+20
5.0312788e+20
4.7247801e+20
4.4842924e+20
5.3546597e+20
4.9677384e+20
4.6651773e+20
4.4278298e+20
4.3904775e+20
4.238199e+20
4.1187858e+20
4.0260571e+20
4.34486e+20
4.1942704e+20
4.0761836e+20
3.9844761e+20
4.2951835e+20
4.1464262e+20
4.0297775e+20
3.9391771e+20
4.2412216e+20
4.0944464e+20
3.9793528e+20
3.8899488e+20
3.9556108e+20
3.9045098e+20
3.8710718e+20
3.8547434e+20
3.9147878e+20
3.8642106e+20
3.8310792e+20
3.8148476e+20
3.8703104e+20
3.820301e+20
3.7875026e+20
3.7713764e+20
3.8219702e+20
3.7725745e+20
3.7401363e+20
3.7241247e+20
3.8560499e+20
3.8766131e+20
3.9192375e+20
3.9880703e+20
3.8160374e+20
3.8362562e+20
3.8782828e+20
3.9462249e+20
3.7724404e+20
3.7922867e+20
3.8336657e+20
3.9006419e+20
3.7250536e+20
3.7444978e+20
3.7851769e+20
3.8511084e+20
4.0888426e+20
4.2292097e+20
4.4192097e+20
4.6718732e+20
4.0457581e+20
4.1844625e+20
4.3722759e+20
4.6220976e+20
3.9988304e+20
4.1357288e+20
4.3211657e+20
4.567897e+20
3.9478411e+20
4.0827831e+20
4.2656438e+20
4.5090227e+20
0
0
0
0
0
0
0
0
0
0
0
0
0
0
0
0
0
0
0
0
0
0
0
0
0
0
0
0
0
0
0
0
0
0
0
0
0
0
0
0
0
0
0
0
0
0
0
0
0
0
0
0
0
0
0
0
0
0
0
0
0
0
0
0
0
0
0
0
0
0
0
0
0
0
0
0
0
0
0
0
0
0
0
0
0
0
0
0
0
0
0
0
0
0
0
0
0
0
0
0
0
0
0
0
0
0
0
0
0
0
0
0
0
0
0
0
0
0
0
0
0
0
0
0
0
0
0
0
0
0
0
0
0
0
0
0
0
0
0
0
0
0
0
0
0
0
0
0
0
0
0
0
0
0
0
0
0
0
0
0
0
0
0
0
0
0
0
0
0
0
0
0
0
0
0
0
0
0
0
0
0
0
0
0
0
0
0
0
0
0
0
0
0
0
0
0
0
0
0
0
0
0
0
0
0
0
0
0
0
0
0
0
0
0
0
0
0
0
0
0
0
0
0
0
0
0
0
0
0
0
0
0
0
0
0
0
0
0
0
0
5.280468e+20
4.8988986e+20
4.6005972e+20
4.3666434e+20
5.2002578e+20
4.8244716e+20
4.5307682e+20
4.3004737e+20
5.1137095e+20
4.7441599e+20
4.455409e+20
4.2290515e+20
5.0204955e+20
4.657658e+20
4.3742305e+20
4.1520997e+20
4.1827355e+20
4.0380989e+20
3.9246821e+20
3.8365679e+20
4.1194747e+20
3.97714e+20
3.8655267e+20
3.778799e+20
4.0511789e+20
3.9113157e+20
3.8016375e+20
3.7163964e+20
3.9775795e+20
3.840364e+20
3.7327565e+20
3.6491052e+20
3.7695462e+20
3.7208121e+20
3.6887623e+20
3.6728747e+20
3.7128058e+20
3.6647826e+20
3.6331504e+20
3.6173962e+20
3.6515055e+20
3.604244e+20
3.573059e+20
3.5574473e+20
3.5853922e+20
3.538944e+20
3.5082358e+20
3.4927752e+20
3.6736583e+20
3.6926695e+20
3.732594e+20
3.7973979e+20
3.6180238e+20
3.6365692e+20
3.6756814e+20
3.7392708e+20
3.557907e+20
3.5759519e+20
3.6141908e+20
3.6764738e+20
3.4930535e+20
3.5105605e+20
3.5478616e+20
3.608741e+20
3.8925583e+20
4.0253853e+20
4.2054593e+20
4.4452097e+20
3.8327359e+20
3.9632813e+20
4.1403466e+20
4.3761771e+20
3.7681144e+20
3.8962022e+20
4.0700248e+20
4.3016279e+20
3.6984204e+20
3.8238651e+20
3.9941979e+20
4.2212488e+20
0
0
0
0
0
0
0
0
0
0
0
0
0
0
0
0
0
0
0
0
0
0
0
0
0
0
0
0
0
0
0
0
0
0
0
0
0
0
0
0
0
0
0
0
0
0
0
0
0
0
0
0
0
0
0
0
0
0
0
0
0
0
0
0
0
0
0
0
0
0
0
0
0
0
0
0
0
0
0
0
0
0
0
0
0
0
0
0
0
0
0
0
0
0
0
0
0
0
0
0
0
0
0
0
0
0
0
0
0
0
0
0
0
0
0
0
0
0
0
0
0
0
0
0
0
0
0
0
0
0
0
0
0
0
0
0
0
0
0
0
0
0
0
0
0
0
0
0
0
0
0
0
0
0
0
0
0
0
0
0
0
0
0
0
0
0
0
0
0
0
0
0
0
0
0
0
0
0
0
0
0
0
0
0
0
0
0
0
0
0
0
0
0
0
0
0
0
0
0
0
0
0
0
0
0
0
0
0
0
0
0
0
0
0
0
0
0
0
0
0
0
0
0
0
0
0
0
0
0
0
0
0
0
0
0
0
0
0
0
0
4.9202854e+20
4.5646574e+20
4.2869399e+20
4.0693368e+20
4.812751e+20
4.4648509e+20
4.193245e+20
3.9804809e+20
4.6975743e+20
4.3579398e+20
4.0928605e+20
3.8852552e+20
4.5744575e+20
4.2436433e+20
3.985516e+20
3.7833958e+20
3.8984032e+20
3.7640166e+20
3.6586195e+20
3.5766631e+20
3.8133748e+20
3.6820032e+20
3.5789583e+20
3.4988034e+20
3.7222232e+20
3.5940551e+20
3.4935055e+20
3.4152579e+20
3.624687e+20
3.4999117e+20
3.4019988e+20
3.3257619e+20
3.5142047e+20
3.4686216e+20
3.4384195e+20
3.423117e+20
3.4376763e+20
3.3930093e+20
3.3633406e+20
3.3482009e+20
3.3555373e+20
3.3118351e+20
3.2827242e+20
3.2677479e+20
3.2675192e+20
3.2248257e+20
3.1962916e+20
3.1814735e+20
3.4231982e+20
3.4401268e+20
3.4764207e+20
3.5357934e+20
3.3480661e+20
3.3643714e+20
3.3995836e+20
3.4573394e+20
3.2673735e+20
3.2830049e+20
3.3170538e+20
3.3730738e+20
3.1808289e+20
3.1957281e+20
3.2285231e+20
3.2826778e+20
3.6233669e+20
3.7459721e+20
3.9125539e+20
4.1347093e+20
3.5426531e+20
3.6622106e+20
3.8247647e+20
4.0416614e+20
3.4559632e+20
3.5722512e+20
3.7304841e+20
3.9417368e+20
3.3629655e+20
3.4757468e+20
3.6293451e+20
3.8345444e+20
0
0
0
0
0
0
0
0
0
0
0
0
0
0
0
0
0
0
0
0
0
0
0
0
0
0
0
0
0
0
0
0
0
0
0
0
0
0
0
0
0
0
0
0
0
0
0
0
0
0
0
0
0
0
0
0
0
0
0
0
0
0
0
0
0
0
0
0
0
0
0
0
0
0
0
0
0
0
0
0
0
0
0
0
0
0
0
0
0
0
0
0
0
0
0
0
0
0
0
0
0
0
0
0
0
0
0
0
0
0
0
0
0
0
0
0
0
0
0
0
0
0
0
0
0
0
0
0
0
0
0
0
0
0
0
0
0
0
0
0
0
0
0
0
0
0
0
0
0
0
0
0
0
0
0
0
0
0
0
0
0
0
0
0
0
0
0
0
0
0
0
0
0
0
0
0
0
0
0
0
0
0
0
0
0
0
0
0
0
0
0
0
0
0
0
0
0
0
0
0
0
0
0
0
0
0
0
0
0
0
0
0
0
0
0
0
0
0
0
0
0
0
0
0
0
0
0
0
0
0
0
0
0
0
0
0
0
0
0
0
4.4431365e+20
4.1217097e+20
3.870967e+20
3.6746609e+20
4.303398e+20
3.9919332e+20
3.7490093e+20
3.5588439e+20
4.1551028e+20
3.8541738e+20
3.6194979e+20
3.4357912e+20
3.9982157e+20
3.7083855e+20
3.4823721e+20
3.3054245e+20
3.520524e+20
3.3993277e+20
3.3041886e+20
3.2300596e+20
3.4095226e+20
3.2920841e+20
3.1998467e+20
3.1279125e+20
3.2915175e+20
3.1780021e+20
3.0887789e+20
3.0191099e+20
3.1664106e+20
3.0569618e+20
2.970842e+20
2.9034833e+20
3.1733594e+20
3.1317109e+20
3.103764e+20
3.0890895e+20
3.0728079e+20
3.0322283e+20
3.0048661e+20
2.9903071e+20
2.9656362e+20
2.9261308e+20
2.8993313e+20
2.8848391e+20
2.8516496e+20
2.813196e+20
2.7869083e+20
2.7724042e+20
3.0881343e+20
3.102232e+20
3.1336703e+20
3.1858165e+20
2.9889862e+20
3.0021976e+20
3.0321597e+20
3.0821358e+20
2.8830761e+20
2.8952942e+20
2.9236369e+20
2.971256e+20
2.7700916e+20
2.7811766e+20
2.8077226e+20
2.8527619e+20
3.2633091e+20
3.3723275e+20
3.5209555e+20
3.7196642e+20
3.1566195e+20
3.2615953e+20
3.4048899e+20
3.5966381e+20
3.0424896e+20
3.1431128e+20
3.2806764e+20
3.4649548e+20
2.9204658e+20
3.0163853e+20
3.1477752e+20
3.3240237e+20
0
0
0
0
0
0
0
0
0
0
0
0
0
0
0
0
0
0
0
0
0
0
0
0
0
0
0
0
0
0
0
0
0
0
0
0
0
0
0
0
0
0
0
0
0
0
0
0
0
0
0
0
0
0
0
0
0
0
0
0
0
0
0
0
0
0
0
0
0
0
0
0
0
0
0
0
0
0
0
0
0
0
0
0
0
0
0
0
0
0
0
0
0
0
0
0
0
0
0
0
0
0
0
0
0
0
0
0
0
0
0
0
0
0
0
0
0
0
0
0
0
0
0
0
0
0
0
0
0
0
0
0
0
0
0
0
0
0
0
0
0
0
0
0
0
0
0
0
0
0
0
0
0
0
0
0
0
0
0
0
0
0
0
0
0
0
0
0
0
0
0
0
0
0
0
0