/*--------------------------------*- C++ -*----------------------------------*\
| =========                 |                                                 |
| \\      /  F ield         | OpenFOAM: The Open Source CFD Toolbox           |
|  \\    /   O peration     | Version:  1.4.1-dev                             |
|   \\  /    A nd           | Web:      http://www.openfoam.org               |
|    \\/     M anipulation  |                                                 |
\*---------------------------------------------------------------------------*/

FoamFile
{
    version 2.0;
    format ascii;

    root "/home/cliffoi/OpenFOAM/cliffoi-1.4.1-dev/run/diffusionFoam";
    case "oecd_simplified_2G";
    instance "0";
    local "";

    class volScalarField;
    object _149Sm;
}

// * * * * * * * * * * * * * * * * * * * * * * * * * * * * * * * * * * * * * //

dimensions      [0 -3 0 0 0 0 0];

internalField   nonuniform List<scalar> 
9280
(
0
0
0
0
0
0
0
0
0
0
0
0
0
0
0
0
0
0
0
0
0
0
0
0
0
0
0
0
0
0
0
0
0
0
0
0
0
0
0
0
0
0
0
0
0
0
0
0
0
0
0
0
0
0
0
0
0
0
0
0
0
0
0
0
0
0
0
0
0
0
0
0
0
0
0
0
0
0
0
0
0
0
0
0
0
0
0
0
0
0
0
0
0
0
0
0
0
0
0
0
0
0
0
0
0
0
0
0
0
0
0
0
0
0
0
0
0
0
0
0
0
0
0
0
0
0
0
0
0
0
0
0
0
0
0
0
0
0
0
0
0
0
0
0
0
0
0
0
0
0
0
0
0
0
0
0
0
0
0
0
0
0
0
0
0
0
0
0
0
0
0
0
0
0
0
0
0
0
0
0
0
0
0
0
0
0
0
0
0
0
0
0
0
0
0
0
0
0
0
0
0
0
0
0
0
0
0
0
0
0
0
0
0
0
0
0
0
0
0
0
0
0
0
0
0
0
0
0
0
0
0
0
0
0
0
0
0
0
0
0
0
0
0
0
0
0
0
0
0
0
0
0
0
0
0
0
0
0
0
0
0
0
0
0
0
0
0
0
0
0
0
0
0
0
0
0
0
0
0
0
0
0
0
0
0
0
0
0
0
0
0
0
0
0
0
0
0
0
0
0
0
0
0
0
0
0
0
0
0
0
0
0
0
0
0
0
0
0
0
0
0
0
0
0
0
0
0
0
0
0
0
0
0
0
0
0
0
0
0
0
0
0
0
0
0
0
0
0
0
0
0
0
0
0
0
0
0
0
0
0
0
0
0
0
0
0
0
0
0
0
0
0
0
0
0
0
0
0
0
0
0
0
0
0
0
0
0
0
0
0
0
0
0
0
0
0
0
0
0
0
0
0
0
0
0
0
0
0
0
0
0
0
0
0
0
0
0
0
0
0
0
0
0
0
0
0
0
0
0
0
0
0
0
0
0
0
0
0
0
0
0
0
0
0
0
0
0
0
0
0
0
0
0
0
0
0
0
0
0
0
0
0
0
0
0
0
0
0
0
0
0
0
0
0
0
0
0
0
0
0
0
0
0
0
0
0
0
0
0
0
0
0
0
0
0
0
0
0
0
0
0
0
0
0
0
0
0
0
0
0
0
0
0
0
0
0
0
0
0
0
0
0
0
0
0
0
0
0
0
0
0
0
0
0
0
0
0
0
0
0
0
0
0
0
0
0
0
0
0
0
0
0
0
0
0
0
0
0
0
0
0
0
0
0
0
0
0
0
0
0
0
0
0
0
0
0
0
0
0
0
0
0
0
0
0
0
0
0
0
0
0
0
0
0
0
0
0
0
0
0
0
0
0
0
0
0
0
0
0
0
0
0
0
0
0
0
0
0
0
0
0
0
0
0
0
0
0
0
0
0
0
0
0
0
0
0
0
0
0
0
0
0
0
0
0
0
0
0
0
0
0
0
0
0
0
0
0
0
0
0
0
0
0
0
0
0
0
0
0
0
0
0
0
0
0
0
0
0
0
0
0
0
0
0
0
0
0
0
0
0
0
0
0
0
0
0
0
0
0
0
0
0
0
0
0
0
0
0
0
0
0
0
0
0
0
0
0
0
0
0
0
0
0
0
0
0
0
0
0
0
0
0
0
0
0
0
0
0
0
0
0
0
0
0
0
0
0
0
0
0
0
0
0
0
0
0
0
0
0
0
0
0
0
0
0
0
0
0
0
0
0
0
0
0
0
0
0
0
0
0
0
0
0
0
0
0
0
0
0
0
0
0
0
0
0
0
0
0
0
0
0
0
0
0
0
0
0
0
0
0
0
0
0
0
0
0
0
0
0
0
0
0
0
0
0
0
0
0
0
0
0
0
0
0
0
0
0
0
0
0
0
0
0
0
0
0
0
0
0
0
0
0
0
0
0
0
0
0
0
0
0
0
0
0
0
0
0
0
0
0
0
0
0
0
0
0
0
0
0
0
0
0
0
0
0
0
0
0
0
0
0
0
0
0
0
0
0
0
0
0
0
0
0
0
0
0
0
0
0
0
0
0
0
0
0
0
0
0
0
0
0
0
0
0
0
0
0
0
0
0
0
0
0
0
0
0
0
0
0
0
0
0
0
0
0
0
0
0
0
0
0
0
0
0
0
0
0
0
0
0
0
0
0
0
0
0
0
0
0
0
0
0
0
0
0
0
0
0
0
0
0
0
0
0
0
0
0
0
0
0
0
0
0
0
0
0
0
0
0
0
0
0
0
0
0
0
0
0
0
0
0
0
0
0
0
0
0
0
0
0
0
0
0
0
0
0
0
0
0
0
0
0
0
0
0
0
0
0
0
0
0
0
0
0
0
0
0
0
0
0
0
0
0
0
0
0
4.8635767e+20
4.8802144e+20
4.8914263e+20
4.897875e+20
4.9709244e+20
4.9944233e+20
5.0117185e+20
5.0231772e+20
5.0658558e+20
5.0932275e+20
5.113944e+20
5.1282096e+20
5.1552158e+20
5.1846937e+20
5.2071201e+20
5.2226326e+20
4.9001935e+20
4.8989493e+20
4.8946249e+20
4.8876127e+20
5.0293073e+20
5.0306649e+20
5.0277866e+20
5.0211459e+20
5.1364196e+20
5.1390722e+20
5.1366915e+20
5.1297684e+20
5.2315744e+20
5.2344133e+20
5.2316644e+20
5.2238265e+20
4.8782167e+20
4.8666573e+20
4.8530764e+20
4.8375414e+20
5.01113e+20
4.9980295e+20
4.9820357e+20
4.9632415e+20
5.1187228e+20
5.1038821e+20
5.0854715e+20
5.0636118e+20
5.2113387e+20
5.1945533e+20
5.1737223e+20
5.1489939e+20
4.8200466e+20
4.8005131e+20
4.7787876e+20
4.7546416e+20
4.9416445e+20
4.9171521e+20
4.8895906e+20
4.8587215e+20
5.0383236e+20
5.0095362e+20
4.977105e+20
4.9408386e+20
5.1204166e+20
5.0879504e+20
5.0514879e+20
5.0108857e+20
4.7277754e+20
4.6978302e+20
4.6644168e+20
4.627165e+20
4.8242712e+20
4.7859776e+20
4.7436587e+20
4.6972982e+20
4.9005399e+20
4.8560635e+20
4.8073855e+20
4.7546765e+20
4.9660091e+20
4.9167911e+20
4.8632987e+20
4.8057973e+20
0
0
0
0
0
0
0
0
0
0
0
0
0
0
0
0
0
0
0
0
0
0
0
0
0
0
0
0
0
0
0
0
0
0
0
0
0
0
0
0
0
0
0
0
0
0
0
0
0
0
0
0
0
0
0
0
0
0
0
0
0
0
0
0
0
0
0
0
0
0
0
0
0
0
0
0
0
0
0
0
0
0
0
0
0
0
0
0
0
0
0
0
0
0
0
0
0
0
0
0
0
0
0
0
0
0
0
0
0
0
0
0
0
0
0
0
0
0
0
0
0
0
0
0
0
0
0
0
0
0
0
0
0
0
0
0
0
0
0
0
0
0
0
0
0
0
0
0
0
0
0
0
0
0
0
0
0
0
0
0
0
0
0
0
0
0
0
0
0
0
0
0
0
0
0
0
0
0
0
0
0
0
0
0
0
0
0
0
0
0
0
0
0
0
0
0
0
0
0
0
0
0
0
0
0
0
0
0
0
0
0
0
0
0
0
0
0
0
0
0
0
0
0
0
0
0
0
0
0
0
0
0
0
0
0
0
0
0
0
0
5.2423456e+20
5.27304e+20
5.2962706e+20
5.3121614e+20
5.32867e+20
5.3601461e+20
5.3837235e+20
5.3995386e+20
5.4147013e+20
5.4467385e+20
5.4704235e+20
5.4859182e+20
5.5005343e+20
5.5330095e+20
5.5566649e+20
5.5716948e+20
5.3210458e+20
5.3233901e+20
5.3197164e+20
5.3105388e+20
5.4079381e+20
5.4094046e+20
5.4044801e+20
5.3937017e+20
5.4935948e+20
5.4939623e+20
5.4875906e+20
5.4750451e+20
5.5785035e+20
5.5776324e+20
5.569684e+20
5.5552563e+20
5.296317e+20
5.2774273e+20
5.2541472e+20
5.2266508e+20
5.3775539e+20
5.356439e+20
5.3306604e+20
5.3004178e+20
5.4568392e+20
5.4334031e+20
5.4050671e+20
5.3720573e+20
5.5348939e+20
5.5090571e+20
5.4781046e+20
5.4422888e+20
5.1950136e+20
5.1592245e+20
5.1192079e+20
5.0748574e+20
5.2658121e+20
5.2268581e+20
5.1835072e+20
5.1356815e+20
5.334499e+20
5.2924314e+20
5.2458299e+20
5.1946407e+20
5.4017605e+20
5.3565822e+20
5.3067521e+20
5.2522389e+20
5.0260813e+20
4.9728614e+20
4.9153168e+20
4.8537637e+20
5.0833204e+20
5.0264383e+20
4.965188e+20
4.8999168e+20
5.1388283e+20
5.0784321e+20
5.0136298e+20
4.9447918e+20
5.1930287e+20
5.1291831e+20
5.0609004e+20
4.9885707e+20
0
0
0
0
0
0
0
0
0
0
0
0
0
0
0
0
0
0
0
0
0
0
0
0
0
0
0
0
0
0
0
0
0
0
0
0
0
0
0
0
0
0
0
0
0
0
0
0
0
0
0
0
0
0
0
0
0
0
0
0
0
0
0
0
0
0
0
0
0
0
0
0
0
0
0
0
0
0
0
0
0
0
0
0
0
0
0
0
0
0
0
0
0
0
0
0
0
0
0
0
0
0
0
0
0
0
0
0
0
0
0
0
0
0
0
0
0
0
0
0
0
0
0
0
0
0
0
0
0
0
0
0
0
0
0
0
0
0
0
0
0
0
0
0
0
0
0
0
0
0
0
0
0
0
0
0
0
0
0
0
0
0
0
0
0
0
0
0
0
0
0
0
0
0
0
0
0
0
0
0
0
0
0
0
0
0
0
0
0
0
0
0
0
0
0
0
0
0
0
0
0
0
0
0
0
0
0
0
0
0
0
0
0
0
0
0
0
0
0
0
0
0
0
0
0
0
0
0
0
0
0
0
0
0
0
0
0
0
0
0
5.5860734e+20
5.6189081e+20
5.6424446e+20
5.6569133e+20
5.6711365e+20
5.7042728e+20
5.727624e+20
5.7414593e+20
5.7555021e+20
5.7888922e+20
5.8120037e+20
5.825147e+20
5.8389324e+20
5.8725335e+20
5.8953583e+20
5.9077598e+20
5.6627548e+20
5.660547e+20
5.6509281e+20
5.6345313e+20
5.7462586e+20
5.7426385e+20
5.7312759e+20
5.712841e+20
5.8288431e+20
5.8237498e+20
5.8105843e+20
5.7900556e+20
5.9103019e+20
5.9036853e+20
5.888669e+20
5.8660023e+20
5.6119347e+20
5.5836304e+20
5.5500067e+20
5.5113436e+20
5.6879473e+20
5.65712e+20
5.6207784e+20
5.5792308e+20
5.7628142e+20
5.7294197e+20
5.6903233e+20
5.6458624e+20
5.8363741e+20
5.8003793e+20
5.758502e+20
5.7111098e+20
5.4678171e+20
5.4195137e+20
5.366454e+20
5.3086281e+20
5.5326794e+20
5.4812347e+20
5.4249399e+20
5.3638064e+20
5.5962662e+20
5.5416697e+20
5.4821388e+20
5.4177063e+20
5.6584589e+20
5.6007094e+20
5.5379503e+20
5.4702357e+20
5.2460431e+20
5.1787805e+20
5.1070582e+20
5.0312838e+20
5.2978615e+20
5.2272064e+20
5.1520773e+20
5.0728989e+20
5.3484197e+20
5.274399e+20
5.1958986e+20
5.1133598e+20
5.397633e+20
5.3202813e+20
5.2384524e+20
5.1526039e+20
0
0
0
0
0
0
0
0
0
0
0
0
0
0
0
0
0
0
0
0
0
0
0
0
0
0
0
0
0
0
0
0
0
0
0
0
0
0
0
0
0
0
0
0
0
0
0
0
0
0
0
0
0
0
0
0
0
0
0
0
0
0
0
0
0
0
0
0
0
0
0
0
0
0
0
0
0
0
0
0
0
0
0
0
0
0
0
0
0
0
0
0
0
0
0
0
0
0
0
0
0
0
0
0
0
0
0
0
0
0
0
0
0
0
0
0
0
0
0
0
0
0
0
0
0
0
0
0
0
0
0
0
0
0
0
0
0
0
0
0
0
0
0
0
0
0
0
0
0
0
0
0
0
0
0
0
0
0
0
0
0
0
0
0
0
0
0
0
0
0
0
0
0
0
0
0
0
0
0
0
0
0
0
0
0
0
0
0
0
0
0
0
0
0
0
0
0
0
0
0
0
0
0
0
0
0
0
0
0
0
0
0
0
0
0
0
0
0
0
0
0
0
0
0
0
0
0
0
0
0
0
0
0
0
0
0
0
0
0
0
5.9211841e+20
5.9549568e+20
5.977453e+20
5.9890698e+20
6.0020152e+20
6.0359224e+20
6.0580526e+20
6.0688481e+20
6.0811881e+20
6.115195e+20
6.1369261e+20
6.1468697e+20
6.158473e+20
6.1925468e+20
6.21385e+20
6.2229171e+20
5.9904155e+20
5.9822349e+20
5.9653303e+20
5.9404925e+20
6.0689625e+20
6.0591863e+20
6.0403659e+20
6.0133347e+20
6.1457259e+20
6.1343313e+20
6.1135777e+20
6.0843418e+20
6.2204957e+20
6.2074692e+20
6.1847753e+20
6.1533342e+20
5.9084496e+20
5.8698332e+20
5.8251607e+20
5.7748303e+20
5.9788609e+20
5.9376132e+20
5.8901433e+20
5.8368803e+20
6.0474323e+20
6.0035558e+20
5.9532985e+20
5.897121e+20
6.1139961e+20
6.0675054e+20
6.0144832e+20
5.9554215e+20
5.7191262e+20
5.6582338e+20
5.5922652e+20
5.5212957e+20
5.7781367e+20
5.7141232e+20
5.6449752e+20
5.5707894e+20
5.8353638e+20
5.7682634e+20
5.6959781e+20
5.6186259e+20
5.8906891e+20
5.820548e+20
5.7451795e+20
5.6647223e+20
5.4454127e+20
5.3647739e+20
5.2796686e+20
5.1905698e+20
5.4916727e+20
5.4078013e+20
5.3194811e+20
5.2272008e+20
5.5363332e+20
5.4492939e+20
5.3578305e+20
5.2624463e+20
5.5793219e+20
5.4891896e+20
5.394664e+20
5.2962626e+20
0
0
0
0
0
0
0
0
0
0
0
0
0
0
0
0
0
0
0
0
0
0
0
0
0
0
0
0
0
0
0
0
0
0
0
0
0
0
0
0
0
0
0
0
0
0
0
0
0
0
0
0
0
0
0
0
0
0
0
0
0
0
0
0
0
0
0
0
0
0
0
0
0
0
0
0
0
0
0
0
0
0
0
0
0
0
0
0
0
0
0
0
0
0
0
0
0
0
0
0
0
0
0
0
0
0
0
0
0
0
0
0
0
0
0
0
0
0
0
0
0
0
0
0
0
0
0
0
0
0
0
0
0
0
0
0
0
0
0
0
0
0
0
0
0
0
0
0
0
0
0
0
0
0
0
0
0
0
0
0
0
0
0
0
0
0
0
0
0
0
0
0
0
0
0
0
0
0
0
0
0
0
0
0
0
0
0
0
0
0
0
0
0
0
0
0
0
0
0
0
0
0
0
0
0
0
0
0
0
0
0
0
0
0
0
0
0
0
0
0
0
0
0
0
0
0
0
0
0
0
0
0
0
0
0
0
0
0
0
0
6.233649e+20
6.2677594e+20
6.28861e+20
6.2967825e+20
6.306506e+20
6.340625e+20
6.3610032e+20
6.3682692e+20
6.3768457e+20
6.4109479e+20
6.4308382e+20
6.4371923e+20
6.4444824e+20
6.4785451e+20
6.497937e+20
6.5033801e+20
6.293072e+20
6.2784092e+20
6.2537779e+20
6.2201425e+20
6.3632658e+20
6.3469715e+20
6.3204162e+20
6.2846084e+20
6.4309005e+20
6.4129887e+20
6.3845329e+20
6.3465854e+20
6.4958123e+20
6.4763061e+20
6.4459833e+20
6.4059396e+20
6.1783944e+20
6.1293163e+20
6.073564e+20
6.0116608e+20
6.2404806e+20
6.1888538e+20
6.1304182e+20
6.0657283e+20
6.3001198e+20
6.2459946e+20
6.1849344e+20
6.1175244e+20
6.3571891e+20
6.3006274e+20
6.2370126e+20
6.1669601e+20
5.9440038e+20
5.8708801e+20
5.7924938e+20
5.7090039e+20
5.9952091e+20
5.9191726e+20
5.837845e+20
5.7514054e+20
6.0442169e+20
5.9653483e+20
5.8811665e+20
5.79187e+20
6.0909491e+20
6.0093397e+20
5.9224008e+20
5.8303494e+20
5.6205747e+20
5.5274342e+20
5.4299364e+20
5.3286124e+20
5.6600359e+20
5.5639811e+20
5.4636095e+20
5.3594653e+20
5.6976582e+20
5.5987914e+20
5.4956523e+20
5.3887971e+20
5.7334019e+20
5.6318334e+20
5.5260399e+20
5.4165893e+20
0
0
0
0
0
0
0
0
0
0
0
0
0
0
0
0
0
0
0
0
0
0
0
0
0
0
0
0
0
0
0
0
0
0
0
0
0
0
0
0
0
0
0
0
0
0
0
0
0
0
0
0
0
0
0
0
0
0
0
0
0
0
0
0
0
0
0
0
0
0
0
0
0
0
0
0
0
0
0
0
0
0
0
0
0
0
0
0
0
0
0
0
0
0
0
0
0
0
0
0
0
0
0
0
0
0
0
0
0
0
0
0
0
0
0
0
0
0
0
0
0
0
0
0
0
0
0
0
0
0
0
0
0
0
0
0
0
0
0
0
0
0
0
0
0
0
0
0
0
0
0
0
0
0
0
0
0
0
0
0
0
0
0
0
0
0
0
0
0
0
0
0
0
0
0
0
0
0
0
0
0
0
0
0
0
0
0
0
0
0
0
0
0
0
0
0
0
0
0
0
0
0
0
0
0
0
0
0
0
0
0
0
0
0
0
0
0
0
0
0
0
0
0
0
0
0
0
0
0
0
0
0
0
0
0
0
0
0
0
0
6.5092437e+20
6.543247e+20
6.5621346e+20
6.5666742e+20
6.5709707e+20
6.6048977e+20
6.6232797e+20
6.6269298e+20
6.6295184e+20
6.6633548e+20
6.6812351e+20
6.6840156e+20
6.6847555e+20
6.7184902e+20
6.7358767e+20
6.7378137e+20
6.5578504e+20
6.5367821e+20
6.5046358e+20
6.4625498e+20
6.6168779e+20
6.5942882e+20
6.5603712e+20
6.516307e+20
6.6727708e+20
6.6487091e+20
6.6130835e+20
6.5671145e+20
6.7254186e+20
6.6999422e+20
6.6626787e+20
6.6148875e+20
6.411578e+20
6.3526524e+20
6.286564e+20
6.2139575e+20
6.4631879e+20
6.4019815e+20
6.3335107e+20
6.2584486e+20
6.511932e+20
6.4485378e+20
6.3777854e+20
6.3003756e+20
6.5577347e+20
6.4922547e+20
6.4193308e+20
6.3396897e+20
6.1353381e+20
6.0510889e+20
5.961499e+20
5.8668036e+20
6.1773256e+20
6.0905468e+20
5.9984209e+20
5.9012001e+20
6.2168626e+20
6.127673e+20
6.0331338e+20
5.9335136e+20
6.2539089e+20
6.1624348e+20
6.0656122e+20
5.9637248e+20
5.7672348e+20
5.6630821e+20
5.5547539e+20
5.442829e+20
5.7991318e+20
5.6925187e+20
5.5817812e+20
5.467508e+20
5.8290738e+20
5.7201301e+20
5.6071135e+20
5.4906225e+20
5.8570477e+20
5.745908e+20
5.6307472e+20
5.5121724e+20
0
0
0
0
0
0
0
0
0
0
0
0
0
0
0
0
0
0
0
0
0
0
0
0
0
0
0
0
0
0
0
0
0
0
0
0
0
0
0
0
0
0
0
0
0
0
0
0
0
0
0
0
0
0
0
0
0
0
0
0
0
0
0
0
0
0
0
0
0
0
0
0
0
0
0
0
0
0
0
0
0
0
0
0
0
0
0
0
0
0
0
0
0
0
0
0
0
0
0
0
0
0
0
0
0
0
0
0
0
0
0
0
0
0
0
0
0
0
0
0
0
0
0
0
0
0
0
0
0
0
0
0
0
0
0
0
0
0
0
0
0
0
0
0
0
0
0
0
0
0
0
0
0
0
0
0
0
0
0
0
0
0
0
0
0
0
0
0
0
0
0
0
0
0
0
0
0
0
0
0
0
0
0
0
0
0
0
0
0
0
0
0
0
0
0
0
0
0
0
0
0
0
0
0
0
0
0
0
0
0
0
0
0
0
0
0
0
0
0
0
0
0
0
0
0
0
0
0
0
0
0
0
0
0
0
0
0
0
0
0
6.7365641e+20
6.7701888e+20
6.7870943e+20
6.7882196e+20
6.7848399e+20
6.818349e+20
6.8347902e+20
6.8351412e+20
6.829491e+20
6.8628816e+20
6.8788794e+20
6.8784985e+20
6.8704378e+20
6.9037095e+20
6.9192887e+20
6.9182229e+20
6.7747234e+20
6.7478972e+20
6.7090747e+20
6.6595524e+20
6.8205996e+20
6.7924957e+20
6.7522007e+20
6.7010462e+20
6.8629732e+20
6.8336704e+20
6.7919963e+20
6.7393159e+20
6.9017811e+20
6.8713642e+20
6.828411e+20
6.7743175e+20
6.6005308e+20
6.5330758e+20
6.4580986e+20
6.3763508e+20
6.6402655e+20
6.570954e+20
6.4940494e+20
6.4103267e+20
6.6768929e+20
6.6058506e+20
6.5271514e+20
6.4415921e+20
6.7103757e+20
6.6377347e+20
6.5573799e+20
6.4701282e+20
6.2884317e+20
6.1948066e+20
6.0958368e+20
5.9918205e+20
6.3204055e+20
6.2247692e+20
6.1237943e+20
6.0177923e+20
6.3498115e+20
6.2523092e+20
6.1494762e+20
6.0416363e+20
6.3766359e+20
6.277418e+20
6.1728784e+20
6.0633521e+20
5.8830451e+20
5.7698488e+20
5.6526824e+20
5.5321608e+20
5.9070623e+20
5.7919524e+20
5.6729221e+20
5.5505936e+20
5.9290991e+20
5.812222e+20
5.6914724e+20
5.5674789e+20
5.9491585e+20
5.8306634e+20
5.7083411e+20
5.5828262e+20
0
0
0
0
0
0
0
0
0
0
0
0
0
0
0
0
0
0
0
0
0
0
0
0
0
0
0
0
0
0
0
0
0
0
0
0
0
0
0
0
0
0
0
0
0
0
0
0
0
0
0
0
0
0
0
0
0
0
0
0
0
0
0
0
0
0
0
0
0
0
0
0
0
0
0
0
0
0
0
0
0
0
0
0
0
0
0
0
0
0
0
0
0
0
0
0
0
0
0
0
0
0
0
0
0
0
0
0
0
0
0
0
0
0
0
0
0
0
0
0
0
0
0
0
0
0
0
0
0
0
0
0
0
0
0
0
0
0
0
0
0
0
0
0
0
0
0
0
0
0
0
0
0
0
0
0
0
0
0
0
0
0
0
0
0
0
0
0
0
0
0
0
0
0
0
0
0
0
0
0
0
0
0
0
0
0
0
0
0
0
0
0
0
0
0
0
0
0
0
0
0
0
0
0
0
0
0
0
0
0
0
0
0
0
0
0
0
0
0
0
0
0
0
0
0
0
0
0
0
0
0
0
0
0
0
0
0
0
0
0
6.9076122e+20
6.9407672e+20
6.9559557e+20
6.9542566e+20
6.9409571e+20
6.9739995e+20
6.9888287e+20
6.9865518e+20
6.9704254e+20
7.0033614e+20
7.0178653e+20
7.0150696e+20
6.9959796e+20
7.0288172e+20
7.0430324e+20
7.0397798e+20
6.9369706e+20
6.9055298e+20
6.8614033e+20
6.8060154e+20
6.9684983e+20
6.9361289e+20
6.89094e+20
6.8343817e+20
6.9963294e+20
6.963131e+20
6.9169952e+20
6.8593949e+20
7.0204372e+20
6.9865131e+20
6.9395497e+20
6.88104e+20
6.7406842e+20
6.6665824e+20
6.5847164e+20
6.4959215e+20
6.7677956e+20
6.6923759e+20
6.6091479e+20
6.5189637e+20
6.7916931e+20
6.7151028e+20
6.6306662e+20
6.5392501e+20
6.8123654e+20
6.7347554e+20
6.6492669e+20
6.5567797e+20
6.4008702e+20
6.3000911e+20
6.1940001e+20
6.0829424e+20
6.42251e+20
6.3203279e+20
6.2128439e+20
6.1004123e+20
6.4415541e+20
6.3381302e+20
6.2294144e+20
6.1157689e+20
6.4580044e+20
6.3535025e+20
6.2437181e+20
6.1290204e+20
5.9672461e+20
5.8472843e+20
5.7235378e+20
5.5966465e+20
5.9833691e+20
5.8620939e+20
5.7370732e+20
5.6089514e+20
5.9975365e+20
5.8751026e+20
5.7489586e+20
5.6197529e+20
6.0097579e+20
5.8863211e+20
5.7592056e+20
5.6290631e+20
0
0
0
0
0
0
0
0
0
0
0
0
0
0
0
0
0
0
0
0
0
0
0
0
0
0
0
0
0
0
0
0
0
0
0
0
0
0
0
0
0
0
0
0
0
0
0
0
0
0
0
0
0
0
0
0
0
0
0
0
0
0
0
0
0
0
0
0
0
0
0
0
0
0
0
0
0
0
0
0
0
0
0
0
0
0
0
0
0
0
0
0
0
0
0
0
0
0
0
0
0
0
0
0
0
0
0
0
0
0
0
0
0
0
0
0
0
0
0
0
0
0
0
0
0
0
0
0
0
0
0
0
0
0
0
0
0
0
0
0
0
0
0
0
0
0
0
0
0
0
0
0
0
0
0
0
0
0
0
0
0
0
0
0
0
0
0
0
0
0
0
0
0
0
0
0
0
0
0
0
0
0
0
0
0
0
0
0
0
0
0
0
0
0
0
0
0
0
0
0
0
0
0
0
0
0
0
0
0
0
0
0
0
0
0
0
0
0
0
0
0
0
0
0
0
0
0
0
0
0
0
0
0
0
0
0
0
0
0
0
7.017591e+20
7.0503397e+20
7.0643047e+20
7.0606598e+20
7.0352389e+20
7.0679094e+20
7.0816647e+20
7.0776942e+20
7.0489105e+20
7.0815145e+20
7.0951019e+20
7.0908741e+20
7.0585999e+20
7.0911499e+20
7.1046122e+20
7.1001967e+20
7.040802e+20
7.0062586e+20
6.9585903e+20
6.8993069e+20
7.0574107e+20
7.0223572e+20
6.9741091e+20
6.9141905e+20
7.0702564e+20
7.0348037e+20
6.9861032e+20
6.9256897e+20
7.0793375e+20
7.043598e+20
6.9945738e+20
6.9338071e+20
6.8298056e+20
6.7513299e+20
6.6649493e+20
6.5715543e+20
6.8440111e+20
6.7648262e+20
6.6777153e+20
6.5835778e+20
6.8549829e+20
6.7752469e+20
6.6875693e+20
6.5928561e+20
6.8627249e+20
6.7825974e+20
6.6945176e+20
6.5993966e+20
6.4718649e+20
6.3664508e+20
6.2557628e+20
6.1401759e+20
6.4831414e+20
6.3769824e+20
6.265557e+20
6.149245e+20
6.4918412e+20
6.3851056e+20
6.2731099e+20
6.1562375e+20
6.4979721e+20
6.390829e+20
6.2784307e+20
6.1611631e+20
6.0200435e+20
5.8957605e+20
5.7678256e+20
5.6368936e+20
6.0284039e+20
5.9034316e+20
5.77483e+20
5.6432558e+20
6.034849e+20
5.9093449e+20
5.780229e+20
5.6481601e+20
6.0393888e+20
5.9135102e+20
5.7840326e+20
5.6516159e+20
0
0
0
0
0
0
0
0
0
0
0
0
0
0
0
0
0
0
0
0
0
0
0
0
0
0
0
0
0
0
0
0
0
0
0
0
0
0
0
0
0
0
0
0
0
0
0
0
0
0
0
0
0
0
0
0
0
0
0
0
0
0
0
0
0
0
0
0
0
0
0
0
0
0
0
0
0
0
0
0
0
0
0
0
0
0
0
0
0
0
0
0
0
0
0
0
0
0
0
0
0
0
0
0
0
0
0
0
0
0
0
0
0
0
0
0
0
0
0
0
0
0
0
0
0
0
0
0
0
0
0
0
0
0
0
0
0
0
0
0
0
0
0
0
0
0
0
0
0
0
0
0
0
0
0
0
0
0
0
0
0
0
0
0
0
0
0
0
0
0
0
0
0
0
0
0
0
0
0
0
0
0
0
0
0
0
0
0
0
0
0
0
0
0
0
0
0
0
0
0
0
0
0
0
0
0
0
0
0
0
0
0
0
0
0
0
0
0
0
0
0
0
0
0
0
0
0
0
0
0
0
0
0
0
0
0
0
0
0
0
7.0643082e+20
7.0968171e+20
7.1101976e+20
7.1056647e+20
7.0660428e+20
7.0985238e+20
7.1118661e+20
7.1072864e+20
7.0638174e+20
7.0962837e+20
7.1096314e+20
7.105075e+20
7.0576522e+20
7.0901163e+20
7.1035124e+20
7.0990493e+20
7.0846575e+20
7.0487446e+20
6.9995261e+20
6.9385489e+20
7.086225e+20
7.0502522e+20
7.0009691e+20
6.9399242e+20
7.0840531e+20
7.0481335e+20
6.9989154e+20
6.937945e+20
7.0781596e+20
7.0424055e+20
6.9933808e+20
6.9326264e+20
6.8672439e+20
6.7868849e+20
6.6985682e+20
6.6032076e+20
6.8685491e+20
6.7881189e+20
6.6997305e+20
6.6042986e+20
6.8666523e+20
6.7863106e+20
6.6980154e+20
6.6026798e+20
6.8615676e+20
6.7814732e+20
6.6934349e+20
6.5983625e+20
6.5015432e+20
6.3941618e+20
6.2815286e+20
6.1640308e+20
6.5025637e+20
6.3951131e+20
6.2824125e+20
6.1648495e+20
6.5010434e+20
6.3936923e+20
6.2810914e+20
6.1636274e+20
6.4969925e+20
6.3899086e+20
6.2775735e+20
6.1603721e+20
6.0420323e+20
5.9159365e+20
5.7862495e+20
5.6536317e+20
6.0427881e+20
5.9166319e+20
5.7868873e+20
5.6542148e+20
6.0416638e+20
5.9156036e+20
5.7859528e+20
5.6533715e+20
6.0386663e+20
5.9128579e+20
5.7834516e+20
5.6511066e+20
0
0
0
0
0
0
0
0
0
0
0
0
0
0
0
0
0
0
0
0
0
0
0
0
0
0
0
0
0
0
0
0
0
0
0
0
0
0
0
0
0
0
0
0
0
0
0
0
0
0
0
0
0
0
0
0
0
0
0
0
0
0
0
0
0
0
0
0
0
0
0
0
0
0
0
0
0
0
0
0
0
0
0
0
0
0
0
0
0
0
0
0
0
0
0
0
0
0
0
0
0
0
0
0
0
0
0
0
0
0
0
0
0
0
0
0
0
0
0
0
0
0
0
0
0
0
0
0
0
0
0
0
0
0
0
0
0
0
0
0
0
0
0
0
0
0
0
0
0
0
0
0
0
0
0
0
0
0
0
0
0
0
0
0
0
0
0
0
0
0
0
0
0
0
0
0
0
0
0
0
0
0
0
0
0
0
0
0
0
0
0
0
0
0
0
0
0
0
0
0
0
0
0
0
0
0
0
0
0
0
0
0
0
0
0
0
0
0
0
0
0
0
0
0
0
0
0
0
0
0
0
0
0
0
0
0
0
0
0
0
7.0475734e+20
7.0800476e+20
7.0935341e+20
7.0892328e+20
7.0336136e+20
7.0661092e+20
7.0797272e+20
7.0756547e+20
7.0158123e+20
7.0483395e+20
7.0621282e+20
7.0583497e+20
6.9942159e+20
7.0267836e+20
7.0407803e+20
7.0373585e+20
7.0685669e+20
7.0330893e+20
6.984385e+20
6.9239866e+20
7.0553023e+20
7.0202104e+20
6.9719514e+20
6.9120467e+20
7.0383984e+20
7.0037985e+20
6.9561073e+20
6.8968314e+20
7.017893e+20
6.9838888e+20
6.9368845e+20
6.8783693e+20
6.8533115e+20
6.7736216e+20
6.6860026e+20
6.5913586e+20
6.841903e+20
6.7627729e+20
6.6757334e+20
6.5816814e+20
6.8273643e+20
6.7489466e+20
6.6626444e+20
6.5693455e+20
6.8097207e+20
6.7321647e+20
6.6467547e+20
6.554367e+20
6.4904217e+20
6.3837715e+20
6.2718672e+20
6.1550909e+20
6.4813425e+20
6.3752908e+20
6.2639809e+20
6.1477907e+20
6.4697672e+20
6.3644768e+20
6.2539228e+20
6.1384783e+20
6.4557094e+20
6.3513406e+20
6.2417021e+20
6.1271607e+20
6.033802e+20
5.9084001e+20
5.7793881e+20
5.6474241e+20
6.0270764e+20
5.9022347e+20
5.7737663e+20
5.6423269e+20
6.018495e+20
5.894366e+20
5.7665889e+20
5.6358171e+20
6.008063e+20
5.8847977e+20
5.7578587e+20
5.6278964e+20
0
0
0
0
0
0
0
0
0
0
0
0
0
0
0
0
0
0
0
0
0
0
0
0
0
0
0
0
0
0
0
0
0
0
0
0
0
0
0
0
0
0
0
0
0
0
0
0
0
0
0
0
0
0
0
0
0
0
0
0
0
0
0
0
0
0
0
0
0
0
0
0
0
0
0
0
0
0
0
0
0
0
0
0
0
0
0
0
0
0
0
0
0
0
0
0
0
0
0
0
0
0
0
0
0
0
0
0
0
0
0
0
0
0
0
0
0
0
0
0
0
0
0
0
0
0
0
0
0
0
0
0
0
0
0
0
0
0
0
0
0
0
0
0
0
0
0
0
0
0
0
0
0
0
0
0
0
0
0
0
0
0
0
0
0
0
0
0
0
0
0
0
0
0
0
0
0
0
0
0
0
0
0
0
0
0
0
0
0
0
0
0
0
0
0
0
0
0
0
0
0
0
0
0
0
0
0
0
0
0
0
0
0
0
0
0
0
0
0
0
0
0
0
0
0
0
0
0
0
0
0
0
0
0
0
0
0
0
0
0
6.9688781e+20
7.0014935e+20
7.0157336e+20
7.0127284e+20
6.9398605e+20
6.9725293e+20
6.9870452e+20
6.9845133e+20
6.9072333e+20
6.9399589e+20
6.9547804e+20
6.9527749e+20
6.8710755e+20
6.9038593e+20
6.919013e+20
6.917583e+20
6.9938302e+20
6.9605216e+20
6.9143196e+20
6.8566932e+20
6.9662602e+20
6.9337432e+20
6.8884547e+20
6.8318407e+20
6.9352406e+20
6.9036064e+20
6.8593378e+20
6.803855e+20
6.9008364e+20
6.8701714e+20
6.8270235e+20
6.7727852e+20
6.7890011e+20
6.7124526e+20
6.6280859e+20
6.5367644e+20
6.765239e+20
6.6898393e+20
6.6066631e+20
6.5165587e+20
6.7384723e+20
6.664358e+20
6.5825148e+20
6.493774e+20
6.7087447e+20
6.636047e+20
6.5556738e+20
6.4684383e+20
6.4391843e+20
6.3358946e+20
6.2273284e+20
6.1138453e+20
6.4202094e+20
6.3181529e+20
6.2108128e+20
6.0985406e+20
6.3988046e+20
6.2981318e+20
6.1921682e+20
6.0812563e+20
6.3749933e+20
6.2758501e+20
6.1714097e+20
6.0620041e+20
5.9957859e+20
5.8735336e+20
5.7475779e+20
5.6185657e+20
5.9816697e+20
5.8605776e+20
5.7357488e+20
5.607826e+20
5.9657216e+20
5.8459347e+20
5.7223744e+20
5.5956788e+20
5.94795e+20
5.8296107e+20
5.7074584e+20
5.5821258e+20
0
0
0
0
0
0
0
0
0
0
0
0
0
0
0
0
0
0
0
0
0
0
0
0
0
0
0
0
0
0
0
0
0
0
0
0
0
0
0
0
0
0
0
0
0
0
0
0
0
0
0
0
0
0
0
0
0
0
0
0
0
0
0
0
0
0
0
0
0
0
0
0
0
0
0
0
0
0
0
0
0
0
0
0
0
0
0
0
0
0
0
0
0
0
0
0
0
0
0
0
0
0
0
0
0
0
0
0
0
0
0
0
0
0
0
0
0
0
0
0
0
0
0
0
0
0
0
0
0
0
0
0
0
0
0
0
0
0
0
0
0
0
0
0
0
0
0
0
0
0
0
0
0
0
0
0
0
0
0
0
0
0
0
0
0
0
0
0
0
0
0
0
0
0
0
0
0
0
0
0
0
0
0
0
0
0
0
0
0
0
0
0
0
0
0
0
0
0
0
0
0
0
0
0
0
0
0
0
0
0
0
0
0
0
0
0
0
0
0
0
0
0
0
0
0
0
0
0
0
0
0
0
0
0
0
0
0
0
0
0
6.8314756e+20
6.8643168e+20
6.8798257e+20
6.879016e+20
6.7885323e+20
6.8214274e+20
6.8373112e+20
6.8371619e+20
6.7423547e+20
6.775298e+20
6.7915721e+20
6.7921185e+20
6.6930632e+20
6.7260461e+20
6.7427223e+20
6.7439943e+20
6.8631212e+20
6.833506e+20
6.791574e+20
6.7386872e+20
6.8221773e+20
6.7936865e+20
6.753059e+20
6.7016242e+20
6.7780968e+20
6.7507987e+20
6.7115572e+20
6.6616678e+20
6.7309819e+20
6.7049377e+20
6.6671567e+20
6.6188983e+20
6.6761059e+20
6.60495e+20
6.5261782e+20
6.440584e+20
6.6406127e+20
6.5711169e+20
6.4940716e+20
6.4102485e+20
6.6023291e+20
6.5346048e+20
6.4594038e+20
6.377475e+20
6.5613277e+20
6.4954784e+20
6.4222321e+20
6.3423135e+20
6.3488026e+20
6.2513304e+20
6.1485553e+20
6.040798e+20
6.3202642e+20
6.2245989e+20
6.1236263e+20
6.017655e+20
6.2894151e+20
6.1956867e+20
6.0966484e+20
5.9925959e+20
6.2562981e+20
6.1646301e+20
6.067652e+20
5.9656454e+20
5.9283657e+20
5.8116131e+20
5.6910056e+20
5.5671699e+20
5.9069816e+20
5.7919518e+20
5.6730229e+20
5.5508153e+20
5.8838141e+20
5.770639e+20
5.6535194e+20
5.5330684e+20
5.8588831e+20
5.7476904e+20
5.6325068e+20
5.5139377e+20
0
0
0
0
0
0
0
0
0
0
0
0
0
0
0
0
0
0
0
0
0
0
0
0
0
0
0
0
0
0
0
0
0
0
0
0
0
0
0
0
0
0
0
0
0
0
0
0
0
0
0
0
0
0
0
0
0
0
0
0
0
0
0
0
0
0
0
0
0
0
0
0
0
0
0
0
0
0
0
0
0
0
0
0
0
0
0
0
0
0
0
0
0
0
0
0
0
0
0
0
0
0
0
0
0
0
0
0
0
0
0
0
0
0
0
0
0
0
0
0
0
0
0
0
0
0
0
0
0
0
0
0
0
0
0
0
0
0
0
0
0
0
0
0
0
0
0
0
0
0
0
0
0
0
0
0
0
0
0
0
0
0
0
0
0
0
0
0
0
0
0
0
0
0
0
0
0
0
0
0
0
0
0
0
0
0
0
0
0
0
0
0
0
0
0
0
0
0
0
0
0
0
0
0
0
0
0
0
0
0
0
0
0
0
0
0
0
0
0
0
0
0
0
0
0
0
0
0
0
0
0
0
0
0
0
0
0
0
0
0
6.6407896e+20
6.673801e+20
6.6908867e+20
6.6929087e+20
6.5856775e+20
6.6187034e+20
6.6362018e+20
6.6389927e+20
6.5278823e+20
6.5609064e+20
6.5788163e+20
6.5823892e+20
6.4675718e+20
6.500575e+20
6.5188908e+20
6.523253e+20
6.6809457e+20
6.6562095e+20
6.6199554e+20
6.5734053e+20
6.6281125e+20
6.6047307e+20
6.5700617e+20
6.5252888e+20
6.5726181e+20
6.5506292e+20
6.517595e+20
6.4746591e+20
6.5146103e+20
6.4940446e+20
6.4626861e+20
6.4216376e+20
6.5176899e+20
6.4538108e+20
6.3826213e+20
6.3048208e+20
6.4715066e+20
6.4096841e+20
6.3406448e+20
6.265062e+20
6.4228791e+20
6.3631902e+20
6.2963853e+20
6.2231105e+20
6.371919e+20
6.3144308e+20
6.2499347e+20
6.1790488e+20
6.2209626e+20
6.1314715e+20
6.0366728e+20
5.9368334e+20
6.1834656e+20
6.09626e+20
6.0037528e+20
5.9061951e+20
6.1438717e+20
6.0590521e+20
5.9689408e+20
5.8737722e+20
6.1022543e+20
6.0199124e+20
5.9322928e+20
5.839613e+20
5.832213e+20
5.7231254e+20
5.6100003e+20
5.4934346e+20
5.803833e+20
5.6969679e+20
5.586019e+20
5.4715743e+20
5.773778e+20
5.6692469e+20
5.5605867e+20
5.4483755e+20
5.7420893e+20
5.639997e+20
5.5337319e+20
5.4238619e+20
0
0
0
0
0
0
0
0
0
0
0
0
0
0
0
0
0
0
0
0
0
0
0
0
0
0
0
0
0
0
0
0
0
0
0
0
0
0
0
0
0
0
0
0
0
0
0
0
0
0
0
0
0
0
0
0
0
0
0
0
0
0
0
0
0
0
0
0
0
0
0
0
0
0
0
0
0
0
0
0
0
0
0
0
0
0
0
0
0
0
0
0
0
0
0
0
0
0
0
0
0
0
0
0
0
0
0
0
0
0
0
0
0
0
0
0
0
0
0
0
0
0
0
0
0
0
0
0
0
0
0
0
0
0
0
0
0
0
0
0
0
0
0
0
0
0
0
0
0
0
0
0
0
0
0
0
0
0
0
0
0
0
0
0
0
0
0
0
0
0
0
0
0
0
0
0
0
0
0
0
0
0
0
0
0
0
0
0
0
0
0
0
0
0
0
0
0
0
0
0
0
0
0
0
0
0
0
0
0
0
0
0
0
0
0
0
0
0
0
0
0
0
0
0
0
0
0
0
0
0
0
0
0
0
0
0
0
0
0
0
6.4049256e+20
6.4378862e+20
6.4565981e+20
6.4617511e+20
6.340135e+20
6.3730292e+20
6.3921232e+20
6.3980624e+20
6.2734031e+20
6.3062046e+20
6.3256626e+20
6.3323778e+20
6.2049436e+20
6.2376244e+20
6.2574243e+20
6.2648996e+20
6.4542487e+20
6.4351286e+20
6.4054775e+20
6.3663571e+20
6.3917052e+20
6.3740444e+20
6.3461233e+20
6.308962e+20
6.3271634e+20
6.3109675e+20
6.2847895e+20
6.2496081e+20
6.2608187e+20
6.2460847e+20
6.2216538e+20
6.1884632e+20
6.3187491e+20
6.2635186e+20
6.2013955e+20
6.1329694e+20
6.2635034e+20
6.210577e+20
6.1508805e+20
6.0849744e+20
6.2063273e+20
6.1557408e+20
6.0985136e+20
6.0351769e+20
6.1473779e+20
6.0991558e+20
6.0444294e+20
5.9837005e+20
6.0586959e+20
5.9789139e+20
5.893873e+20
5.8037732e+20
6.0132885e+20
5.9361387e+20
5.8537542e+20
5.7663166e+20
5.9661345e+20
5.8916788e+20
5.8120182e+20
5.7273155e+20
5.9173463e+20
5.8456358e+20
5.7687562e+20
5.6868512e+20
5.7088148e+20
5.609259e+20
5.5054891e+20
5.3980621e+20
5.67401e+20
5.5770807e+20
5.475899e+20
5.3710103e+20
5.6377381e+20
5.543517e+20
5.4450088e+20
5.3427469e+20
5.600071e+20
5.5086309e+20
5.4128733e+20
5.3133191e+20
0
0
0
0
0
0
0
0
0
0
0
0
0
0
0
0
0
0
0
0
0
0
0
0
0
0
0
0
0
0
0
0
0
0
0
0
0
0
0
0
0
0
0
0
0
0
0
0
0
0
0
0
0
0
0
0
0
0
0
0
0
0
0
0
0
0
0
0
0
0
0
0
0
0
0
0
0
0
0
0
0
0
0
0
0
0
0
0
0
0
0
0
0
0
0
0
0
0
0
0
0
0
0
0
0
0
0
0
0
0
0
0
0
0
0
0
0
0
0
0
0
0
0
0
0
0
0
0
0
0
0
0
0
0
0
0
0
0
0
0
0
0
0
0
0
0
0
0
0
0
0
0
0
0
0
0
0
0
0
0
0
0
0
0
0
0
0
0
0
0
0
0
0
0
0
0
0
0
0
0
0
0
0
0
0
0
0
0
0
0
0
0
0
0
0
0
0
0
0
0
0
0
0
0
0
0
0
0
0
0
0
0
0
0
0
0
0
0
0
0
0
0
0
0
0
0
0
0
0
0
0
0
0
0
0
0
0
0
0
0
6.1349808e+20
6.167511e+20
6.187627e+20
6.1958412e+20
6.0637485e+20
6.0960967e+20
6.1164998e+20
6.1254265e+20
5.9914892e+20
6.0236229e+20
6.0442807e+20
6.0538888e+20
5.9184532e+20
5.950339e+20
5.9712166e+20
5.9814705e+20
6.1928774e+20
6.1795945e+20
6.1569054e+20
6.1257063e+20
6.1235567e+20
6.1117059e+20
6.0907444e+20
6.0615276e+20
6.0530839e+20
6.0426385e+20
6.0233815e+20
5.9961283e+20
5.9816952e+20
5.9726216e+20
5.9550375e+20
5.9297197e+20
6.0868236e+20
6.0409795e+20
5.9887741e+20
5.9306797e+20
6.024844e+20
5.9813805e+20
5.9317048e+20
5.8762602e+20
5.9616298e+20
5.9205383e+20
5.8733898e+20
5.8205985e+20
5.8973823e+20
5.8586435e+20
5.8140082e+20
5.7638625e+20
5.8670472e+20
5.7981218e+20
5.7240694e+20
5.6450145e+20
5.8153712e+20
5.7492593e+20
5.6780691e+20
5.6019056e+20
5.7624632e+20
5.6991817e+20
5.6308773e+20
5.5576354e+20
5.7084792e+20
5.6480331e+20
5.5826263e+20
5.5123247e+20
5.5610895e+20
5.4724937e+20
5.379555e+20
5.2827813e+20
5.5208835e+20
5.4351855e+20
5.3451246e+20
5.2511955e+20
5.4795527e+20
5.3967956e+20
5.3096616e+20
5.2186319e+20
5.437207e+20
5.357423e+20
5.2732546e+20
5.1851694e+20
0
0
0
0
0
0
0
0
0
0
0
0
0
0
0
0
0
0
0
0
0
0
0
0
0
0
0
0
0
0
0
0
0
0
0
0
0
0
0
0
0
0
0
0
0
0
0
0
0
0
0
0
0
0
0
0
0
0
0
0
0
0
0
0
0
0
0
0
0
0
0
0
0
0
0
0
0
0
0
0
0
0
0
0
0
0
0
0
0
0
0
0
0
0
0
0
0
0
0
0
0
0
0
0
0
0
0
0
0
0
0
0
0
0
0
0
0
0
0
0
0
0
0
0
0
0
0
0
0
0
0
0
0
0
0
0
0
0
0
0
0
0
0
0
0
0
0
0
0
0
0
0
0
0
0
0
0
0
0
0
0
0
0
0
0
0
0
0
0
0
0
0
0
0
0
0
0
0
0
0
0
0
0
0
0
0
0
0
0
0
0
0
0
0
0
0
0
0
0
0
0
0
0
0
0
0
0
0
0
0
0
0
0
0
0
0
0
0
0
0
0
0
0
0
0
0
0
0
0
0
0
0
0
0
0
0
0
0
0
0
5.8448974e+20
5.8765015e+20
5.8975618e+20
5.908422e+20
5.7710847e+20
5.8023732e+20
5.8235772e+20
5.8350007e+20
5.6972821e+20
5.7282217e+20
5.7495291e+20
5.7614704e+20
5.6237605e+20
5.654319e+20
5.6756891e+20
5.6881004e+20
5.9096357e+20
5.9018932e+20
5.8859428e+20
5.8625232e+20
5.8371579e+20
5.8306997e+20
5.8163362e+20
5.7947694e+20
5.7645215e+20
5.7592954e+20
5.7464654e+20
5.726698e+20
5.6919923e+20
5.6879415e+20
5.6765858e+20
5.658558e+20
5.8323129e+20
5.7958971e+20
5.7537501e+20
5.7062306e+20
5.766643e+20
5.7325104e+20
5.6928164e+20
5.6478926e+20
5.7006039e+20
5.6687053e+20
5.6314186e+20
5.5890497e+20
5.6344366e+20
5.6047142e+20
5.5697802e+20
5.5299152e+20
5.6535862e+20
5.5959688e+20
5.5334596e+20
5.4661054e+20
5.5979624e+20
5.5431554e+20
5.4835322e+20
5.4191206e+20
5.5417981e+20
5.4897717e+20
5.4330112e+20
5.3715258e+20
5.4852961e+20
5.4360099e+20
5.3820777e+20
5.3234905e+20
5.3939668e+20
5.3171768e+20
5.2360021e+20
5.150896e+20
5.3499635e+20
5.2761772e+20
5.1980128e+20
5.1159098e+20
5.3053408e+20
5.2345559e+20
5.159407e+20
5.0803196e+20
5.2602564e+20
5.1924587e+20
5.1203182e+20
5.0442468e+20
0
0
0
0
0
0
0
0
0
0
0
0
0
0
0
0
0
0
0
0
0
0
0
0
0
0
0
0
0
0
0
0
0
0
0
0
0
0
0
0
0
0
0
0
0
0
0
0
0
0
0
0
0
0
0
0
0
0
0
0
0
0
0
0
0
0
0
0
0
0
0
0
0
0
0
0
0
0
0
0
0
0
0
0
0
0
0
0
0
0
0
0
0
0
0
0
0
0
0
0
0
0
0
0
0
0
0
0
0
0
0
0
0
0
0
0
0
0
0
0
0
0
0
0
0
0
0
0
0
0
0
0
0
0
0
0
0
0
0
0
0
0
0
0
0
0
0
0
0
0
0
0
0
0
0
0
0
0
0
0
0
0
0
0
0
0
0
0
0
0
0
0
0
0
0
0
0
0
0
0
0