/*--------------------------------*- C++ -*----------------------------------*\
| =========                 |                                                 |
| \\      /  F ield         | OpenFOAM: The Open Source CFD Toolbox           |
|  \\    /   O peration     | Version:  1.4.1-dev                             |
|   \\  /    A nd           | Web:      http://www.openfoam.org               |
|    \\/     M anipulation  |                                                 |
\*---------------------------------------------------------------------------*/

FoamFile
{
    version 2.0;
    format ascii;

    root "/home/cliffoi/OpenFOAM/cliffoi-1.4.1-dev/run/diffusionFoam";
    case "oecd_simplified_2G";
    instance "0";
    local "";

    class volScalarField;
    object _149Pm;
}

// * * * * * * * * * * * * * * * * * * * * * * * * * * * * * * * * * * * * * //

dimensions      [0 -3 0 0 0 0 0];

internalField   nonuniform List<scalar> 
9280
(
0
0
0
0
0
0
0
0
0
0
0
0
0
0
0
0
0
0
0
0
0
0
0
0
0
0
0
0
0
0
0
0
0
0
0
0
0
0
0
0
0
0
0
0
0
0
0
0
0
0
0
0
0
0
0
0
0
0
0
0
0
0
0
0
0
0
0
0
0
0
0
0
0
0
0
0
0
0
0
0
0
0
0
0
0
0
0
0
0
0
0
0
0
0
0
0
0
0
0
0
0
0
0
0
0
0
0
0
0
0
0
0
0
0
0
0
0
0
0
0
0
0
0
0
0
0
0
0
0
0
0
0
0
0
0
0
0
0
0
0
0
0
0
0
0
0
0
0
0
0
0
0
0
0
0
0
0
0
0
0
0
0
0
0
0
0
0
0
0
0
0
0
0
0
0
0
0
0
0
0
0
0
0
0
0
0
0
0
0
0
0
0
0
0
0
0
0
0
0
0
0
0
0
0
0
0
0
0
0
0
0
0
0
0
0
0
0
0
0
0
0
0
0
0
0
0
0
0
0
0
0
0
0
0
0
0
0
0
0
0
0
0
0
0
0
0
0
0
0
0
0
0
0
0
0
0
0
0
0
0
0
0
0
0
0
0
0
0
0
0
0
0
0
0
0
0
0
0
0
0
0
0
0
0
0
0
0
0
0
0
0
0
0
0
0
0
0
0
0
0
0
0
0
0
0
0
0
0
0
0
0
0
0
0
0
0
0
0
0
0
0
0
0
0
0
0
0
0
0
0
0
0
0
0
0
0
0
0
0
0
0
0
0
0
0
0
0
0
0
0
0
0
0
0
0
0
0
0
0
0
0
0
0
0
0
0
0
0
0
0
0
0
0
0
0
0
0
0
0
0
0
0
0
0
0
0
0
0
0
0
0
0
0
0
0
0
0
0
0
0
0
0
0
0
0
0
0
0
0
0
0
0
0
0
0
0
0
0
0
0
0
0
0
0
0
0
0
0
0
0
0
0
0
0
0
0
0
0
0
0
0
0
0
0
0
0
0
0
0
0
0
0
0
0
0
0
0
0
0
0
0
0
0
0
0
0
0
0
0
0
0
0
0
0
0
0
0
0
0
0
0
0
0
0
0
0
0
0
0
0
0
0
0
0
0
0
0
0
0
0
0
0
0
0
0
0
0
0
0
0
0
0
0
0
0
0
0
0
0
0
0
0
0
0
0
0
0
0
0
0
0
0
0
0
0
0
0
0
0
0
0
0
0
0
0
0
0
0
0
0
0
0
0
0
0
0
0
0
0
0
0
0
0
0
0
0
0
0
0
0
0
0
0
0
0
0
0
0
0
0
0
0
0
0
0
0
0
0
0
0
0
0
0
0
0
0
0
0
0
0
0
0
0
0
0
0
0
0
0
0
0
0
0
0
0
0
0
0
0
0
0
0
0
0
0
0
0
0
0
0
0
0
0
0
0
0
0
0
0
0
0
0
0
0
0
0
0
0
0
0
0
0
0
0
0
0
0
0
0
0
0
0
0
0
0
0
0
0
0
0
0
0
0
0
0
0
0
0
0
0
0
0
0
0
0
0
0
0
0
0
0
0
0
0
0
0
0
0
0
0
0
0
0
0
0
0
0
0
0
0
0
0
0
0
0
0
0
0
0
0
0
0
0
0
0
0
0
0
0
0
0
0
0
0
0
0
0
0
0
0
0
0
0
0
0
0
0
0
0
0
0
0
0
0
0
0
0
0
0
0
0
0
0
0
0
0
0
0
0
0
0
0
0
0
0
0
0
0
0
0
0
0
0
0
0
0
0
0
0
0
0
0
0
0
0
0
0
0
0
0
0
0
0
0
0
0
0
0
0
0
0
0
0
0
0
0
0
0
0
0
0
0
0
0
0
0
0
0
0
0
0
0
0
0
0
0
0
0
0
0
0
0
0
0
0
0
0
0
0
0
0
0
0
0
0
0
0
0
0
0
0
0
0
0
0
0
0
0
0
0
0
0
0
0
0
0
0
0
0
0
0
0
0
0
0
0
0
0
0
0
0
0
0
0
0
0
0
0
0
0
0
0
0
0
0
0
0
0
0
0
0
0
0
0
0
0
0
0
0
0
0
0
0
0
0
0
0
0
0
0
0
0
0
0
0
0
0
0
0
0
0
0
0
0
0
0
0
0
0
0
0
0
0
0
0
0
0
0
0
0
0
0
0
0
0
0
0
0
0
0
0
0
0
0
0
0
0
0
0
0
0
0
0
0
0
0
0
0
0
0
0
0
0
0
0
0
0
0
0
0
0
0
0
0
0
0
0
0
0
0
0
0
0
0
0
0
0
0
0
0
0
0
0
0
0
0
0
0
0
0
0
0
0
0
0
0
0
0
0
0
0
0
0
0
0
0
0
0
0
0
0
0
0
0
0
0
4.0679684e+20
3.8889551e+20
3.7543156e+20
3.6508963e+20
4.1535586e+20
3.9084406e+20
3.7216492e+20
3.5778974e+20
4.3549583e+20
4.0669688e+20
3.8454065e+20
3.6738884e+20
4.598362e+20
4.2791479e+20
4.0323132e+20
3.8405044e+20
3.5693745e+20
3.503104e+20
3.4473562e+20
3.3988113e+20
3.4658646e+20
3.3772157e+20
3.3058744e+20
3.2474923e+20
3.5401138e+20
3.4349005e+20
3.3514666e+20
3.284899e+20
3.6906516e+20
3.5729595e+20
3.4801588e+20
3.4069557e+20
3.3552154e+20
3.3151505e+20
3.2778866e+20
3.2432984e+20
3.1990683e+20
3.1586816e+20
3.1253157e+20
3.0987552e+20
3.2317659e+20
3.1898413e+20
3.1579195e+20
3.135703e+20
3.3496293e+20
3.3057461e+20
3.2739663e+20
3.253926e+20
3.211834e+20
3.1845338e+20
3.1631026e+20
3.1500432e+20
3.0795446e+20
3.0690057e+20
3.0693114e+20
3.0836215e+20
3.1237553e+20
3.1235109e+20
3.137343e+20
3.1686898e+20
3.2461857e+20
3.2522385e+20
3.2745764e+20
3.3168186e+20
3.148873e+20
3.1644606e+20
3.2035434e+20
3.2755411e+20
3.1162863e+20
3.1731316e+20
3.2618342e+20
3.3923986e+20
3.2222449e+20
3.3042214e+20
3.4227008e+20
3.5880851e+20
3.3839064e+20
3.4823764e+20
3.6207274e+20
3.8099044e+20
0
0
0
0
0
0
0
0
0
0
0
0
0
0
0
0
0
0
0
0
0
0
0
0
0
0
0
0
0
0
0
0
0
0
0
0
0
0
0
0
0
0
0
0
0
0
0
0
0
0
0
0
0
0
0
0
0
0
0
0
0
0
0
0
0
0
0
0
0
0
0
0
0
0
0
0
0
0
0
0
0
0
0
0
0
0
0
0
0
0
0
0
0
0
0
0
0
0
0
0
0
0
0
0
0
0
0
0
0
0
0
0
0
0
0
0
0
0
0
0
0
0
0
0
0
0
0
0
0
0
0
0
0
0
0
0
0
0
0
0
0
0
0
0
0
0
0
0
0
0
0
0
0
0
0
0
0
0
0
0
0
0
0
0
0
0
0
0
0
0
0
0
0
0
0
0
0
0
0
0
0
0
0
0
0
0
0
0
0
0
0
0
0
0
0
0
0
0
0
0
0
0
0
0
0
0
0
0
0
0
0
0
0
0
0
0
0
0
0
0
0
0
0
0
0
0
0
0
0
0
0
0
0
0
0
0
0
0
0
0
4.8519715e+20
4.5077483e+20
4.2408504e+20
4.0329996e+20
5.1017709e+20
4.7361757e+20
4.4522607e+20
4.2308728e+20
5.341656e+20
4.9570574e+20
4.658081e+20
4.4247526e+20
5.5691194e+20
5.1672392e+20
4.8545963e+20
4.6104506e+20
3.870421e+20
3.7427788e+20
3.64239e+20
3.5636468e+20
4.0575744e+20
3.9215275e+20
3.8146699e+20
3.7311103e+20
4.2420129e+20
4.0985538e+20
3.9859591e+20
3.8980744e+20
4.4191628e+20
4.2689855e+20
4.1511719e+20
4.0593221e+20
3.5025956e+20
3.4566382e+20
3.4243292e+20
3.405253e+20
3.666688e+20
3.6186608e+20
3.5854934e+20
3.5667294e+20
3.8305482e+20
3.7805071e+20
3.7463357e+20
3.727544e+20
3.9889071e+20
3.9369324e+20
3.9017096e+20
3.8827196e+20
3.3999698e+20
3.4100236e+20
3.4380126e+20
3.4877232e+20
3.5629351e+20
3.575709e+20
3.607756e+20
3.6630299e+20
3.7247091e+20
3.7394864e+20
3.774688e+20
3.8344328e+20
3.880553e+20
3.896922e+20
3.9347434e+20
3.9982954e+20
3.5643363e+20
3.6747169e+20
3.8278056e+20
4.0351362e+20
3.7469511e+20
3.8667133e+20
4.0316986e+20
4.254026e+20
3.9243756e+20
4.0520299e+20
4.2272045e+20
4.4625809e+20
4.0934576e+20
4.2280489e+20
4.4122835e+20
4.6593754e+20
0
0
0
0
0
0
0
0
0
0
0
0
0
0
0
0
0
0
0
0
0
0
0
0
0
0
0
0
0
0
0
0
0
0
0
0
0
0
0
0
0
0
0
0
0
0
0
0
0
0
0
0
0
0
0
0
0
0
0
0
0
0
0
0
0
0
0
0
0
0
0
0
0
0
0
0
0
0
0
0
0
0
0
0
0
0
0
0
0
0
0
0
0
0
0
0
0
0
0
0
0
0
0
0
0
0
0
0
0
0
0
0
0
0
0
0
0
0
0
0
0
0
0
0
0
0
0
0
0
0
0
0
0
0
0
0
0
0
0
0
0
0
0
0
0
0
0
0
0
0
0
0
0
0
0
0
0
0
0
0
0
0
0
0
0
0
0
0
0
0
0
0
0
0
0
0
0
0
0
0
0
0
0
0
0
0
0
0
0
0
0
0
0
0
0
0
0
0
0
0
0
0
0
0
0
0
0
0
0
0
0
0
0
0
0
0
0
0
0
0
0
0
0
0
0
0
0
0
0
0
0
0
0
0
0
0
0
0
0
0
5.7833126e+20
5.365527e+20
5.0403137e+20
4.7862221e+20
5.9841615e+20
5.551649e+20
5.2147937e+20
4.951487e+20
6.1719571e+20
5.725773e+20
5.3781015e+20
5.1062265e+20
6.3471631e+20
5.8882765e+20
5.530545e+20
5.2506926e+20
4.5870733e+20
4.4307111e+20
4.3080809e+20
4.2125539e+20
4.7450503e+20
4.5829479e+20
4.4558392e+20
4.3568829e+20
4.8930072e+20
4.725557e+20
4.5942704e+20
4.4921089e+20
5.0311523e+20
4.8587132e+20
4.723525e+20
4.6183666e+20
4.1394362e+20
4.0856203e+20
4.0493512e+20
4.0300837e+20
4.2812315e+20
4.2256732e+20
4.1883906e+20
4.1688152e+20
4.4140825e+20
4.3568824e+20
4.3186336e+20
4.2987459e+20
4.538116e+20
4.4793745e+20
4.4402135e+20
4.4200229e+20
4.0284225e+20
4.0461349e+20
4.0862377e+20
4.1531605e+20
4.1675654e+20
4.1864609e+20
4.2286127e+20
4.298593e+20
4.2978509e+20
4.3178173e+20
4.3618442e+20
4.4346368e+20
4.4194464e+20
4.4403982e+20
4.4861596e+20
4.5615591e+20
4.2529958e+20
4.3938505e+20
4.5863205e+20
4.8441198e+20
4.4026938e+20
4.5492919e+20
4.7493401e+20
5.0170204e+20
4.5426736e+20
4.6945827e+20
4.9016503e+20
5.1784938e+20
4.6732487e+20
4.8300905e+20
5.0436801e+20
5.3290402e+20
0
0
0
0
0
0
0
0
0
0
0
0
0
0
0
0
0
0
0
0
0
0
0
0
0
0
0
0
0
0
0
0
0
0
0
0
0
0
0
0
0
0
0
0
0
0
0
0
0
0
0
0
0
0
0
0
0
0
0
0
0
0
0
0
0
0
0
0
0
0
0
0
0
0
0
0
0
0
0
0
0
0
0
0
0
0
0
0
0
0
0
0
0
0
0
0
0
0
0
0
0
0
0
0
0
0
0
0
0
0
0
0
0
0
0
0
0
0
0
0
0
0
0
0
0
0
0
0
0
0
0
0
0
0
0
0
0
0
0
0
0
0
0
0
0
0
0
0
0
0
0
0
0
0
0
0
0
0
0
0
0
0
0
0
0
0
0
0
0
0
0
0
0
0
0
0
0
0
0
0
0
0
0
0
0
0
0
0
0
0
0
0
0
0
0
0
0
0
0
0
0
0
0
0
0
0
0
0
0
0
0
0
0
0
0
0
0
0
0
0
0
0
0
0
0
0
0
0
0
0
0
0
0
0
0
0
0
0
0
0
6.5103231e+20
6.039636e+20
5.6725481e+20
5.3852681e+20
6.6620124e+20
6.1803706e+20
5.8045865e+20
5.510395e+20
6.8028145e+20
6.3110137e+20
5.9271549e+20
5.6265387e+20
6.933306e+20
6.4320953e+20
6.0407483e+20
5.7341675e+20
5.1598362e+20
4.9827429e+20
4.8439116e+20
4.7359527e+20
5.2794754e+20
5.098043e+20
4.9558128e+20
4.8452398e+20
5.3905127e+20
5.2050393e+20
5.0596419e+20
4.946632e+20
5.4933962e+20
5.3041646e+20
5.1558199e+20
5.0405418e+20
4.653622e+20
4.5934376e+20
4.5534212e+20
4.5329439e+20
4.7609669e+20
4.699435e+20
4.65862e+20
4.6378753e+20
4.8605485e+20
4.7977611e+20
4.7562029e+20
4.7352112e+20
4.9527733e+20
4.8888182e+20
4.8465703e+20
4.8253516e+20
4.5326607e+20
4.5545279e+20
4.6019027e+20
4.6797283e+20
4.6378663e+20
4.660588e+20
4.7094678e+20
4.7895548e+20
4.7354604e+20
4.7589815e+20
4.8092663e+20
4.8914618e+20
4.825845e+20
4.8501141e+20
4.9017102e+20
4.9858705e+20
4.7948173e+20
4.9562488e+20
5.1759056e+20
5.4691868e+20
4.9078104e+20
5.0735144e+20
5.298816e+20
5.5994627e+20
5.0126667e+20
5.1823466e+20
5.4128967e+20
5.7203871e+20
5.1098202e+20
5.2831965e+20
5.5186216e+20
5.8324638e+20
0
0
0
0
0
0
0
0
0
0
0
0
0
0
0
0
0
0
0
0
0
0
0
0
0
0
0
0
0
0
0
0
0
0
0
0
0
0
0
0
0
0
0
0
0
0
0
0
0
0
0
0
0
0
0
0
0
0
0
0
0
0
0
0
0
0
0
0
0
0
0
0
0
0
0
0
0
0
0
0
0
0
0
0
0
0
0
0
0
0
0
0
0
0
0
0
0
0
0
0
0
0
0
0
0
0
0
0
0
0
0
0
0
0
0
0
0
0
0
0
0
0
0
0
0
0
0
0
0
0
0
0
0
0
0
0
0
0
0
0
0
0
0
0
0
0
0
0
0
0
0
0
0
0
0
0
0
0
0
0
0
0
0
0
0
0
0
0
0
0
0
0
0
0
0
0
0
0
0
0
0
0
0
0
0
0
0
0
0
0
0
0
0
0
0
0
0
0
0
0
0
0
0
0
0
0
0
0
0
0
0
0
0
0
0
0
0
0
0
0
0
0
0
0
0
0
0
0
0
0
0
0
0
0
0
0
0
0
0
0
7.0540488e+20
6.5441342e+20
6.1458527e+20
5.8337423e+20
7.1655843e+20
6.6476311e+20
6.2429379e+20
5.9257094e+20
7.2684301e+20
6.7430654e+20
6.3324541e+20
6.0104967e+20
7.3630775e+20
6.8308924e+20
6.4148292e+20
6.0885112e+20
5.5885676e+20
5.395846e+20
5.244763e+20
5.1273771e+20
5.6764553e+20
5.4804982e+20
5.3268753e+20
5.207534e+20
5.7574702e+20
5.558519e+20
5.4025447e+20
5.2813926e+20
5.8320031e+20
5.6302868e+20
5.47214e+20
5.3493148e+20
5.0380429e+20
4.9730039e+20
4.9301173e+20
4.908691e+20
5.1167478e+20
5.0507044e+20
5.0072275e+20
4.9856118e+20
5.1892624e+20
5.1222901e+20
5.0782686e+20
5.0564803e+20
5.2559428e+20
5.1881132e+20
5.1435902e+20
5.121645e+20
4.9094153e+20
4.9343838e+20
4.9872025e+20
5.0731915e+20
4.9865541e+20
5.0121758e+20
5.0661326e+20
5.1538211e+20
5.0576282e+20
5.0838584e+20
5.1388728e+20
5.2281375e+20
5.122986e+20
5.149782e+20
5.2057769e+20
5.2965006e+20
5.1996926e+20
5.3765009e+20
5.6164482e+20
5.9361775e+20
5.28269e+20
5.4626798e+20
5.7068153e+20
6.0319926e+20
5.3592e+20
5.5421339e+20
5.7901413e+20
6.1203511e+20
5.4295907e+20
5.6152433e+20
5.8668229e+20
6.2016722e+20
0
0
0
0
0
0
0
0
0
0
0
0
0
0
0
0
0
0
0
0
0
0
0
0
0
0
0
0
0
0
0
0
0
0
0
0
0
0
0
0
0
0
0
0
0
0
0
0
0
0
0
0
0
0
0
0
0
0
0
0
0
0
0
0
0
0
0
0
0
0
0
0
0
0
0
0
0
0
0
0
0
0
0
0
0
0
0
0
0
0
0
0
0
0
0
0
0
0
0
0
0
0
0
0
0
0
0
0
0
0
0
0
0
0
0
0
0
0
0
0
0
0
0
0
0
0
0
0
0
0
0
0
0
0
0
0
0
0
0
0
0
0
0
0
0
0
0
0
0
0
0
0
0
0
0
0
0
0
0
0
0
0
0
0
0
0
0
0
0
0
0
0
0
0
0
0
0
0
0
0
0
0
0
0
0
0
0
0
0
0
0
0
0
0
0
0
0
0
0
0
0
0
0
0
0
0
0
0
0
0
0
0
0
0
0
0
0
0
0
0
0
0
0
0
0
0
0
0
0
0
0
0
0
0
0
0
0
0
0
0
7.4499907e+20
6.9115425e+20
6.4904677e+20
6.1601375e+20
7.529605e+20
6.9854195e+20
6.5597492e+20
6.2257366e+20
7.6023275e+20
7.0529009e+20
6.6230287e+20
6.2856462e+20
7.6685359e+20
7.1143373e+20
6.6806358e+20
6.3401798e+20
5.9004235e+20
5.6961593e+20
5.5360097e+20
5.4116421e+20
5.963078e+20
5.7564722e+20
5.5944813e+20
5.4686952e+20
6.0202908e+20
5.8115392e+20
5.6478603e+20
5.5207737e+20
6.072363e+20
5.8616518e+20
5.6964307e+20
5.5681557e+20
5.3171255e+20
5.2485062e+20
5.2035225e+20
5.1814348e+20
5.3731263e+20
5.3037816e+20
5.2583755e+20
5.2361587e+20
5.4242401e+20
5.3542308e+20
5.3084384e+20
5.2861047e+20
5.4707407e+20
5.4001247e+20
5.3539802e+20
5.331541e+20
5.1829565e+20
5.2102771e+20
5.2671786e+20
5.3592494e+20
5.2378488e+20
5.2656543e+20
5.3233918e+20
5.4167029e+20
5.2879512e+20
5.3162032e+20
5.3747091e+20
5.4691587e+20
5.3335319e+20
5.3621936e+20
5.4214031e+20
5.5168939e+20
5.4942095e+20
5.6823668e+20
5.9372347e+20
6.2763515e+20
5.5533829e+20
5.7438417e+20
6.0017285e+20
6.3447605e+20
5.6074156e+20
5.7999828e+20
6.0606333e+20
6.4072468e+20
5.6565915e+20
5.8510835e+20
6.114255e+20
6.4641337e+20
0
0
0
0
0
0
0
0
0
0
0
0
0
0
0
0
0
0
0
0
0
0
0
0
0
0
0
0
0
0
0
0
0
0
0
0
0
0
0
0
0
0
0
0
0
0
0
0
0
0
0
0
0
0
0
0
0
0
0
0
0
0
0
0
0
0
0
0
0
0
0
0
0
0
0
0
0
0
0
0
0
0
0
0
0
0
0
0
0
0
0
0
0
0
0
0
0
0
0
0
0
0
0
0
0
0
0
0
0
0
0
0
0
0
0
0
0
0
0
0
0
0
0
0
0
0
0
0
0
0
0
0
0
0
0
0
0
0
0
0
0
0
0
0
0
0
0
0
0
0
0
0
0
0
0
0
0
0
0
0
0
0
0
0
0
0
0
0
0
0
0
0
0
0
0
0
0
0
0
0
0
0
0
0
0
0
0
0
0
0
0
0
0
0
0
0
0
0
0
0
0
0
0
0
0
0
0
0
0
0
0
0
0
0
0
0
0
0
0
0
0
0
0
0
0
0
0
0
0
0
0
0
0
0
0
0
0
0
0
0
7.7285796e+20
7.170053e+20
6.7328754e+20
6.3896272e+20
7.7827798e+20
7.220346e+20
6.7800278e+20
6.4342549e+20
7.8314297e+20
7.2654886e+20
6.8223489e+20
6.4743062e+20
7.8747957e+20
7.305728e+20
6.8600711e+20
6.5100021e+20
6.1195727e+20
5.9070791e+20
5.7404548e+20
5.6110982e+20
6.1621758e+20
5.9480687e+20
5.7801736e+20
5.6498374e+20
6.2004058e+20
5.9848464e+20
5.8158071e+20
5.6845888e+20
6.2344747e+20
6.0176173e+20
5.8475552e+20
5.7155481e+20
5.5128812e+20
5.4417133e+20
5.3952491e+20
5.372715e+20
5.5508941e+20
5.4792266e+20
5.4324733e+20
5.409854e+20
5.5849914e+20
5.5128742e+20
5.4658611e+20
5.4431657e+20
5.6153658e+20
5.5428466e+20
5.4956016e+20
5.4728386e+20
5.3748385e+20
5.4038745e+20
5.4637253e+20
5.5601643e+20
5.4120988e+20
5.4414747e+20
5.5019073e+20
5.5992056e+20
5.4455205e+20
5.4752034e+20
5.5361607e+20
5.6342329e+20
5.4752924e+20
5.5052504e+20
5.5666774e+20
5.665442e+20
5.7011729e+20
5.8974148e+20
6.1628768e+20
6.5157204e+20
5.7414012e+20
5.9392265e+20
6.2067596e+20
6.5622826e+20
5.777497e+20
5.9767466e+20
6.2461417e+20
6.6040723e+20
5.809661e+20
6.0101828e+20
6.2812401e+20
6.6413188e+20
0
0
0
0
0
0
0
0
0
0
0
0
0
0
0
0
0
0
0
0
0
0
0
0
0
0
0
0
0
0
0
0
0
0
0
0
0
0
0
0
0
0
0
0
0
0
0
0
0
0
0
0
0
0
0
0
0
0
0
0
0
0
0
0
0
0
0
0
0
0
0
0
0
0
0
0
0
0
0
0
0
0
0
0
0
0
0
0
0
0
0
0
0
0
0
0
0
0
0
0
0
0
0
0
0
0
0
0
0
0
0
0
0
0
0
0
0
0
0
0
0
0
0
0
0
0
0
0
0
0
0
0
0
0
0
0
0
0
0
0
0
0
0
0
0
0
0
0
0
0
0
0
0
0
0
0
0
0
0
0
0
0
0
0
0
0
0
0
0
0
0
0
0
0
0
0
0
0
0
0
0
0
0
0
0
0
0
0
0
0
0
0
0
0
0
0
0
0
0
0
0
0
0
0
0
0
0
0
0
0
0
0
0
0
0
0
0
0
0
0
0
0
0
0
0
0
0
0
0
0
0
0
0
0
0
0
0
0
0
0
7.9131175e+20
7.3412867e+20
6.8934037e+20
6.5415412e+20
7.9466087e+20
7.3723631e+20
6.9225331e+20
6.5691011e+20
7.9754582e+20
7.3991325e+20
6.947624e+20
6.5928382e+20
7.9998296e+20
7.4217469e+20
6.9688195e+20
6.6128883e+20
6.2645732e+20
6.046566e+20
5.8755972e+20
5.7428909e+20
6.2908715e+20
6.0718568e+20
5.9000936e+20
5.7667744e+20
6.3135196e+20
6.0936349e+20
5.9211854e+20
5.7873366e+20
6.3326478e+20
6.1120264e+20
5.9389953e+20
5.8046978e+20
5.6421902e+20
5.5693149e+20
5.5218645e+20
5.4990422e+20
5.6656193e+20
5.5924319e+20
5.5448017e+20
5.5219276e+20
5.6857889e+20
5.6123319e+20
5.5645466e+20
5.5416282e+20
5.7028174e+20
5.629132e+20
5.5812154e+20
5.5582597e+20
5.5015841e+20
5.5317866e+20
5.5936303e+20
5.6930087e+20
5.5245474e+20
5.5549645e+20
5.6171738e+20
5.7170902e+20
5.5443155e+20
5.5749185e+20
5.6374439e+20
5.7378251e+20
5.5610046e+20
5.5917655e+20
5.654559e+20
5.7553342e+20
5.8380738e+20
6.0397219e+20
6.3122501e+20
6.6742287e+20
5.8628965e+20
6.0655308e+20
6.3393461e+20
6.7029866e+20
5.8842714e+20
6.0877568e+20
6.3626823e+20
6.7277554e+20
5.9023225e+20
6.1065282e+20
6.3823927e+20
6.7486771e+20
0
0
0
0
0
0
0
0
0
0
0
0
0
0
0
0
0
0
0
0
0
0
0
0
0
0
0
0
0
0
0
0
0
0
0
0
0
0
0
0
0
0
0
0
0
0
0
0
0
0
0
0
0
0
0
0
0
0
0
0
0
0
0
0
0
0
0
0
0
0
0
0
0
0
0
0
0
0
0
0
0
0
0
0
0
0
0
0
0
0
0
0
0
0
0
0
0
0
0
0
0
0
0
0
0
0
0
0
0
0
0
0
0
0
0
0
0
0
0
0
0
0
0
0
0
0
0
0
0
0
0
0
0
0
0
0
0
0
0
0
0
0
0
0
0
0
0
0
0
0
0
0
0
0
0
0
0
0
0
0
0
0
0
0
0
0
0
0
0
0
0
0
0
0
0
0
0
0
0
0
0
0
0
0
0
0
0
0
0
0
0
0
0
0
0
0
0
0
0
0
0
0
0
0
0
0
0
0
0
0
0
0
0
0
0
0
0
0
0
0
0
0
0
0
0
0
0
0
0
0
0
0
0
0
0
0
0
0
0
0
8.019863e+20
7.4403362e+20
6.9862416e+20
6.6293674e+20
8.0356746e+20
7.4550086e+20
6.999992e+20
6.642372e+20
8.0473577e+20
7.4658505e+20
7.0101519e+20
6.6519795e+20
8.0549829e+20
7.4729275e+20
7.016783e+20
6.6582482e+20
6.3483674e+20
6.1271386e+20
5.953628e+20
5.8189603e+20
6.360771e+20
6.1390611e+20
5.9651704e+20
5.8302094e+20
6.3699325e+20
6.1478653e+20
5.9736923e+20
5.8385131e+20
6.3759081e+20
6.1536056e+20
5.9792462e+20
5.8439231e+20
5.7168055e+20
5.6429319e+20
5.5949071e+20
5.5719208e+20
5.727837e+20
5.6538143e+20
5.605704e+20
5.5826938e+20
5.7359791e+20
5.6618456e+20
5.613672e+20
5.5906443e+20
5.7412824e+20
5.667076e+20
5.6188609e+20
5.5958221e+20
5.5747136e+20
5.6056049e+20
5.6686198e+20
5.7697201e+20
5.5855248e+20
5.61652e+20
5.6797107e+20
5.7810686e+20
5.5935042e+20
5.6245769e+20
5.6878986e+20
5.7894482e+20
5.5987016e+20
5.6298261e+20
5.6932346e+20
5.7949111e+20
5.9171551e+20
6.1219542e+20
6.3985918e+20
6.7658727e+20
5.9288576e+20
6.1341261e+20
6.411375e+20
6.7794433e+20
5.9375001e+20
6.1431169e+20
6.4208187e+20
6.7894696e+20
5.9431362e+20
6.148982e+20
6.4269809e+20
6.7960133e+20
0
0
0
0
0
0
0
0
0
0
0
0
0
0
0
0
0
0
0
0
0
0
0
0
0
0
0
0
0
0
0
0
0
0
0
0
0
0
0
0
0
0
0
0
0
0
0
0
0
0
0
0
0
0
0
0
0
0
0
0
0
0
0
0
0
0
0
0
0
0
0
0
0
0
0
0
0
0
0
0
0
0
0
0
0
0
0
0
0
0
0
0
0
0
0
0
0
0
0
0
0
0
0
0
0
0
0
0
0
0
0
0
0
0
0
0
0
0
0
0
0
0
0
0
0
0
0
0
0
0
0
0
0
0
0
0
0
0
0
0
0
0
0
0
0
0
0
0
0
0
0
0
0
0
0
0
0
0
0
0
0
0
0
0
0
0
0
0
0
0
0
0
0
0
0
0
0
0
0
0
0
0
0
0
0
0
0
0
0
0
0
0
0
0
0
0
0
0
0
0
0
0
0
0
0
0
0
0
0
0
0
0
0
0
0
0
0
0
0
0
0
0
0
0
0
0
0
0
0
0
0
0
0
0
0
0
0
0
0
0
8.0585983e+20
7.4762844e+20
7.0199273e+20
6.6612183e+20
8.0582302e+20
7.4759455e+20
7.0196077e+20
6.6609112e+20
8.0538824e+20
7.4719145e+20
7.0158277e+20
6.6573304e+20
8.0455374e+20
7.4641753e+20
7.0085721e+20
6.6504613e+20
6.378736e+20
6.1563187e+20
5.9818682e+20
5.8464745e+20
6.378437e+20
6.1560248e+20
5.9815777e+20
5.8461863e+20
6.3750142e+20
6.1527269e+20
5.9783775e+20
5.8430614e+20
6.3684535e+20
6.1464112e+20
5.9722544e+20
5.8370866e+20
5.7437816e+20
5.6695396e+20
5.6213046e+20
5.5982611e+20
5.7434953e+20
5.669255e+20
5.6210216e+20
5.5979796e+20
5.7404263e+20
5.6662248e+20
5.6180145e+20
5.5949803e+20
5.7345617e+20
5.6604363e+20
5.6122707e+20
5.5892506e+20
5.6011509e+20
5.6323016e+20
5.6957535e+20
5.7974924e+20
5.6008707e+20
5.6320222e+20
5.6954741e+20
5.7972117e+20
5.5978636e+20
5.6289906e+20
5.6923993e+20
5.7940718e+20
5.5921171e+20
5.6231942e+20
5.6865163e+20
5.7880599e+20
5.9458022e+20
6.1517592e+20
6.4299011e+20
6.799116e+20
5.9455182e+20
6.1514691e+20
6.429601e+20
6.7988007e+20
5.9422872e+20
6.148115e+20
6.4260842e+20
6.7950714e+20
5.9360959e+20
6.1416832e+20
6.4193362e+20
6.7879128e+20
0
0
0
0
0
0
0
0
0
0
0
0
0
0
0
0
0
0
0
0
0
0
0
0
0
0
0
0
0
0
0
0
0
0
0
0
0
0
0
0
0
0
0
0
0
0
0
0
0
0
0
0
0
0
0
0
0
0
0
0
0
0
0
0
0
0
0
0
0
0
0
0
0
0
0
0
0
0
0
0
0
0
0
0
0
0
0
0
0
0
0
0
0
0
0
0
0
0
0
0
0
0
0
0
0
0
0
0
0
0
0
0
0
0
0
0
0
0
0
0
0
0
0
0
0
0
0
0
0
0
0
0
0
0
0
0
0
0
0
0
0
0
0
0
0
0
0
0
0
0
0
0
0
0
0
0
0
0
0
0
0
0
0
0
0
0
0
0
0
0
0
0
0
0
0
0
0
0
0
0
0
0
0
0
0
0
0
0
0
0
0
0
0
0
0
0
0
0
0
0
0
0
0
0
0
0
0
0
0
0
0
0
0
0
0
0
0
0
0
0
0
0
0
0
0
0
0
0
0
0
0
0
0
0
0
0
0
0
0
0
8.0331558e+20
7.452691e+20
6.9978063e+20
6.640271e+20
8.0166761e+20
7.4374048e+20
6.9834768e+20
6.6267088e+20
7.9960152e+20
7.4182395e+20
6.965511e+20
6.6097056e+20
7.9710675e+20
7.3950972e+20
6.943817e+20
6.5891739e+20
6.3587236e+20
6.1370475e+20
5.9631787e+20
5.8282329e+20
6.3457756e+20
6.1245883e+20
5.9511042e+20
5.8164551e+20
6.3295431e+20
6.1089695e+20
5.9359686e+20
5.801692e+20
6.3099424e+20
6.0901101e+20
5.9176928e+20
5.7838661e+20
5.7258728e+20
5.6518612e+20
5.6037619e+20
5.5807624e+20
5.7143151e+20
5.6404554e+20
5.5924447e+20
5.5694723e+20
5.6998285e+20
5.6261595e+20
5.5782597e+20
5.5553212e+20
5.6823367e+20
5.6088979e+20
5.5611321e+20
5.5382344e+20
5.583603e+20
5.6146048e+20
5.6777966e+20
5.7791469e+20
5.5722778e+20
5.6031784e+20
5.6661959e+20
5.7672876e+20
5.5580823e+20
5.5888556e+20
5.6516539e+20
5.7524208e+20
5.5409418e+20
5.5715612e+20
5.6340945e+20
5.734469e+20
5.9269147e+20
6.1321431e+20
6.4093253e+20
6.7772911e+20
5.9146972e+20
6.1194466e+20
6.396001e+20
6.7631533e+20
5.8993807e+20
6.103529e+20
6.3792958e+20
6.7454276e+20
5.8808855e+20
6.0843077e+20
6.3591233e+20
6.724023e+20
0
0
0
0
0
0
0
0
0
0
0
0
0
0
0
0
0
0
0
0
0
0
0
0
0
0
0
0
0
0
0
0
0
0
0
0
0
0
0
0
0
0
0
0
0
0
0
0
0
0
0
0
0
0
0
0
0
0
0
0
0
0
0
0
0
0
0
0
0
0
0
0
0
0
0
0
0
0
0
0
0
0
0
0
0
0
0
0
0
0
0
0
0
0
0
0
0
0
0
0
0
0
0
0
0
0
0
0
0
0
0
0
0
0
0
0
0
0
0
0
0
0
0
0
0
0
0
0
0
0
0
0
0
0
0
0
0
0
0
0
0
0
0
0
0
0
0
0
0
0
0
0
0
0
0
0
0
0
0
0
0
0
0
0
0
0
0
0
0
0
0
0
0
0
0
0
0
0
0
0
0
0
0
0
0
0
0
0
0
0
0
0
0
0
0
0
0
0
0
0
0
0
0
0
0
0
0
0
0
0
0
0
0
0
0
0
0
0
0
0
0
0
0
0
0
0
0
0
0
0
0
0
0
0
0
0
0
0
0
0
7.9417056e+20
7.3678595e+20
6.9182834e+20
6.565008e+20
7.9077791e+20
7.336387e+20
6.8887791e+20
6.5370831e+20
7.8691151e+20
7.300519e+20
6.8551531e+20
6.5052556e+20
7.8255173e+20
7.2600734e+20
6.8172342e+20
6.4693627e+20
6.2868717e+20
6.0679116e+20
5.896181e+20
5.7628836e+20
6.2602115e+20
6.0422583e+20
5.8713203e+20
5.7386341e+20
6.2298239e+20
6.0130168e+20
5.8429809e+20
5.71099e+20
6.1955525e+20
5.9800358e+20
5.8110152e+20
5.6798071e+20
5.6617471e+20
5.5885792e+20
5.540971e+20
5.5181212e+20
5.6379511e+20
5.5650958e+20
5.5176696e+20
5.4948753e+20
5.6108232e+20
5.5383238e+20
5.4911048e+20
5.4683738e+20
5.5802212e+20
5.5081223e+20
5.4611367e+20
5.4384771e+20
5.5207655e+20
5.5512039e+20
5.6134254e+20
5.7133381e+20
5.4974468e+20
5.5276762e+20
5.589538e+20
5.6889176e+20
5.4708626e+20
5.5008543e+20
5.5623068e+20
5.6610798e+20
5.4408733e+20
5.470598e+20
5.5315901e+20
5.6296803e+20
5.8591153e+20
6.0616831e+20
6.3353795e+20
6.6988292e+20
5.8339566e+20
6.0355378e+20
6.3079414e+20
6.6697164e+20
5.8052785e+20
6.0057365e+20
6.2766679e+20
6.6365352e+20
5.7729329e+20
5.9721257e+20
6.2413985e+20
6.5991159e+20
0
0
0
0
0
0
0
0
0
0
0
0
0
0
0
0
0
0
0
0
0
0
0
0
0
0
0
0
0
0
0
0
0
0
0
0
0
0
0
0
0
0
0
0
0
0
0
0
0
0
0
0
0
0
0
0
0
0
0
0
0
0
0
0
0
0
0
0
0
0
0
0
0
0
0
0
0
0
0
0
0
0
0
0
0
0
0
0
0
0
0
0
0
0
0
0
0
0
0
0
0
0
0
0
0
0
0
0
0
0
0
0
0
0
0
0
0
0
0
0
0
0
0
0
0
0
0
0
0
0
0
0
0
0
0
0
0
0
0
0
0
0
0
0
0
0
0
0
0
0
0
0
0
0
0
0
0
0
0
0
0
0
0
0
0
0
0
0
0
0
0
0
0
0
0
0
0
0
0
0
0
0
0
0
0
0
0
0
0
0
0
0
0
0
0
0
0
0
0
0
0
0
0
0
0
0
0
0
0
0
0
0
0
0
0
0
0
0
0
0
0
0
0
0
0
0
0
0
0
0
0
0
0
0
0
0
0
0
0
0
7.7767664e+20
7.2148467e+20
6.7748307e+20
6.4292223e+20
7.7226191e+20
7.164613e+20
6.7277304e+20
6.3846322e+20
7.6628088e+20
7.1091247e+20
6.6757003e+20
6.3353708e+20
7.5970448e+20
7.0481119e+20
6.6184864e+20
6.2811964e+20
6.1572223e+20
5.9431459e+20
5.7752583e+20
5.6449233e+20
6.1146394e+20
5.9021592e+20
5.735527e+20
5.6061595e+20
6.0675907e+20
5.8568694e+20
5.6916201e+20
5.563318e+20
6.0158441e+20
5.8070515e+20
5.6433183e+20
5.516184e+20
5.5459855e+20
5.4743338e+20
5.4276088e+20
5.4050293e+20
5.5079397e+20
5.4367833e+20
5.3903474e+20
5.3678572e+20
5.4658891e+20
5.3952785e+20
5.3491613e+20
5.32677e+20
5.4196219e+20
5.3496097e+20
5.3038423e+20
5.2815601e+20
5.4073225e+20
5.4367496e+20
5.4972284e+20
5.594557e+20
5.3700368e+20
5.3991349e+20
5.4590454e+20
5.5555303e+20
5.3288254e+20
5.3575619e+20
5.4168471e+20
5.5124028e+20
5.2834802e+20
5.3118211e+20
5.3704215e+20
5.4649589e+20
5.7367537e+20
5.9345337e+20
6.2019538e+20
6.5572689e+20
5.6965566e+20
5.8927701e+20
6.1581348e+20
6.5107838e+20
5.6521394e+20
5.8466255e+20
6.1097228e+20
6.4594294e+20
5.6032811e+20
5.7958717e+20
6.0564794e+20
6.4029537e+20
0
0
0
0
0
0
0
0
0
0
0
0
0
0
0
0
0
0
0
0
0
0
0
0
0
0
0
0
0
0
0
0
0
0
0
0
0
0
0
0
0
0
0
0
0
0
0
0
0
0
0
0
0
0
0
0
0
0
0
0
0
0
0
0
0
0
0
0
0
0
0
0
0
0
0
0
0
0
0
0
0
0
0
0
0
0
0
0
0
0
0
0
0
0
0
0
0
0
0
0
0
0
0
0
0
0
0
0
0
0
0
0
0
0
0
0
0
0
0
0
0
0
0
0
0
0
0
0
0
0
0
0
0
0
0
0
0
0
0
0
0
0
0
0
0
0
0
0
0
0
0
0
0
0
0
0
0
0
0
0
0
0
0
0
0
0
0
0
0
0
0
0
0
0
0
0
0
0
0
0
0
0
0
0
0
0
0
0
0
0
0
0
0
0
0
0
0
0
0
0
0
0
0
0
0
0
0
0
0
0
0
0
0
0
0
0
0
0
0
0
0
0
0
0
0
0
0
0
0
0
0
0
0
0
0
0
0
0
0
0
7.5250128e+20
6.9812827e+20
6.555814e+20
6.2218474e+20
7.4463754e+20
6.9083238e+20
6.487388e+20
6.1570427e+20
7.3607724e+20
6.8289005e+20
6.4128931e+20
6.0864817e+20
7.2678219e+20
6.7426577e+20
6.3319949e+20
6.0098456e+20
5.9591478e+20
5.7524618e+20
5.5903836e+20
5.4645239e+20
5.8972316e+20
5.692838e+20
5.5325601e+20
5.4080865e+20
5.8298062e+20
5.6278995e+20
5.4695736e+20
5.3466026e+20
5.7565643e+20
5.557348e+20
5.4011326e+20
5.2797856e+20
5.3689078e+20
5.2995491e+20
5.254164e+20
5.2320016e+20
5.3134993e+20
5.2448513e+20
5.1998826e+20
5.1778515e+20
5.2531306e+20
5.1852533e+20
5.1407364e+20
5.1188485e+20
5.187519e+20
5.1204747e+20
5.0764467e+20
5.0547144e+20
5.233775e+20
5.2616852e+20
5.3195389e+20
5.4129648e+20
5.1794664e+20
5.2069092e+20
5.2639515e+20
5.3561685e+20
5.1202927e+20
5.1472299e+20
5.2033931e+20
5.2942991e+20
5.055975e+20
5.0823665e+20
5.1375798e+20
5.2270679e+20
5.549742e+20
5.7402608e+20
5.9981457e+20
6.3410832e+20
5.4912639e+20
5.6795258e+20
5.9344429e+20
6.2735233e+20
5.4275693e+20
5.61338e+20
5.8650717e+20
6.1999574e+20
5.3583622e+20
5.5415174e+20
5.7897123e+20
6.120048e+20
0
0
0
0
0
0
0
0
0
0
0
0
0
0
0
0
0
0
0
0
0
0
0
0
0
0
0
0
0
0
0
0
0
0
0
0
0
0
0
0
0
0
0
0
0
0
0
0
0
0
0
0
0
0
0
0
0
0
0
0
0
0
0
0
0
0
0
0
0
0
0
0
0
0
0
0
0
0
0
0
0
0
0
0
0
0
0
0
0
0
0
0
0
0
0
0
0
0
0
0
0
0
0
0
0
0
0
0
0
0
0
0
0
0
0
0
0
0
0
0
0
0
0
0
0
0
0
0
0
0
0
0
0
0
0
0
0
0
0
0
0
0
0
0
0
0
0
0
0
0
0
0
0
0
0
0
0
0
0
0
0
0
0
0
0
0
0
0
0
0
0
0
0
0
0
0
0
0
0
0
0
0
0
0
0
0
0
0
0
0
0
0
0
0
0
0
0
0
0
0
0
0
0
0
0
0
0
0
0
0
0
0
0
0
0
0
0
0
0
0
0
0
0
0
0
0
0
0
0
0
0
0
0
0
0
0
0
0
0
0
7.1671223e+20
6.6492222e+20
6.244341e+20
5.926798e+20
7.0582539e+20
6.5482033e+20
6.1495628e+20
5.8369866e+20
6.9407828e+20
6.4391971e+20
6.0472786e+20
5.740046e+20
6.8142644e+20
6.321789e+20
5.9370959e+20
5.6356002e+20
5.6771818e+20
5.4808681e+20
5.3269287e+20
5.2073322e+20
5.5913187e+20
5.3981292e+20
5.2466377e+20
5.1289231e+20
5.4986214e+20
5.3087867e+20
5.1599215e+20
5.0442247e+20
5.3987258e+20
5.2124846e+20
5.0664302e+20
4.9528911e+20
5.1163645e+20
5.0502181e+20
5.0067173e+20
4.9851533e+20
5.0393513e+20
4.9741699e+20
4.9312359e+20
4.9098529e+20
4.9561491e+20
4.8920015e+20
4.8496744e+20
4.8284849e+20
4.8664141e+20
4.8033705e+20
4.7616906e+20
4.7407061e+20
4.9862168e+20
5.0120205e+20
5.0662095e+20
5.1541673e+20
4.9107047e+20
4.9358762e+20
4.9889627e+20
5.0752719e+20
4.8291088e+20
4.853601e+20
4.9055022e+20
4.9900382e+20
4.7410839e+20
4.764846e+20
4.8154743e+20
4.8981052e+20
5.2833274e+20
5.4636121e+20
5.7080246e+20
6.0334352e+20
5.2021312e+20
5.379319e+20
5.6196478e+20
5.939738e+20
5.114421e+20
5.2882733e+20
5.5242008e+20
5.8385532e+20
5.0198262e+20
5.1900909e+20
5.4212817e+20
5.7294555e+20
0
0
0
0
0
0
0
0
0
0
0
0
0
0
0
0
0
0
0
0
0
0
0
0
0
0
0
0
0
0
0
0
0
0
0
0
0
0
0
0
0
0
0
0
0
0
0
0
0
0
0
0
0
0
0
0
0
0
0
0
0
0
0
0
0
0
0
0
0
0
0
0
0
0
0
0
0
0
0
0
0
0
0
0
0
0
0
0
0
0
0
0
0
0
0
0
0
0
0
0
0
0
0
0
0
0
0
0
0
0
0
0
0
0
0
0
0
0
0
0
0
0
0
0
0
0
0
0
0
0
0
0
0
0
0
0
0
0
0
0
0
0
0
0
0
0
0
0
0
0
0
0
0
0
0
0
0
0
0
0
0
0
0
0
0
0
0
0
0
0
0
0
0
0
0
0
0
0
0
0
0
0
0
0
0
0
0
0
0
0
0
0
0
0
0
0
0
0
0
0
0
0
0
0
0
0
0
0
0
0
0
0
0
0
0
0
0
0
0
0
0
0
0
0
0
0
0
0
0
0
0
0
0
0
0
0
0
0
0
0
6.6782503e+20
6.1955603e+20
5.8186173e+20
5.5232669e+20
6.532295e+20
6.060094e+20
5.6914463e+20
5.4026638e+20
6.3759669e+20
5.9149847e+20
5.5551954e+20
5.273415e+20
6.2088619e+20
5.7598513e+20
5.4094979e+20
5.1351624e+20
5.2912606e+20
5.1088592e+20
4.9658048e+20
4.8545663e+20
5.1758526e+20
4.9975432e+20
4.8576816e+20
4.7488881e+20
5.0521334e+20
4.8781723e+20
4.7416974e+20
4.6354927e+20
4.9197486e+20
4.7503924e+20
4.6174964e+20
4.5140207e+20
4.7697922e+20
4.7079227e+20
4.6669297e+20
4.6461597e+20
4.6659209e+20
4.605295e+20
4.565026e+20
4.5444769e+20
4.5544346e+20
4.4951181e+20
4.4556061e+20
4.435279e+20
4.4349686e+20
4.3770212e+20
4.3382921e+20
4.3181796e+20
4.6462701e+20
4.669247e+20
4.7185084e+20
4.7990943e+20
4.5442941e+20
4.566425e+20
4.6142182e+20
4.6926095e+20
4.4347708e+20
4.4559871e+20
4.5022014e+20
4.5782367e+20
4.3173048e+20
4.3375273e+20
4.3820396e+20
4.4555432e+20
4.9179569e+20
5.0843675e+20
5.3104672e+20
5.6119964e+20
4.8084049e+20
4.9706789e+20
5.1913119e+20
5.4857035e+20
4.6907416e+20
4.8485781e+20
5.0633458e+20
5.3500769e+20
4.5645168e+20
4.7175936e+20
4.9260709e+20
5.2045858e+20
0
0
0
0
0
0
0
0
0
0
0
0
0
0
0
0
0
0
0
0
0
0
0
0
0
0
0
0
0
0
0
0
0
0
0
0
0
0
0
0
0
0
0
0
0
0
0
0
0
0
0
0
0
0
0
0
0
0
0
0
0
0
0
0
0
0
0
0
0
0
0
0
0
0
0
0
0
0
0
0
0
0
0
0
0
0
0
0
0
0
0
0
0
0
0
0
0
0
0
0
0
0
0
0
0
0
0
0
0
0
0
0
0
0
0
0
0
0
0
0
0
0
0
0
0
0
0
0
0
0
0
0
0
0
0
0
0
0
0
0
0
0
0
0
0
0
0
0
0
0
0
0
0
0
0
0
0
0
0
0
0
0
0
0
0
0
0
0
0
0
0
0
0
0
0
0
0
0
0
0
0
0
0
0
0
0
0
0
0
0
0
0
0
0
0
0
0
0
0
0
0
0
0
0
0
0
0
0
0
0
0
0
0
0
0
0
0
0
0
0
0
0
0
0
0
0
0
0
0
0
0
0
0
0
0
0
0
0
0
0
6.0306212e+20
5.5943522e+20
5.2540217e+20
4.9875776e+20
5.8409557e+20
5.4182079e+20
5.0884899e+20
4.8303805e+20
5.6396763e+20
5.2312286e+20
4.9127055e+20
4.6633624e+20
5.4267351e+20
5.0333517e+20
4.7265861e+20
4.4864171e+20
4.7783692e+20
4.6138708e+20
4.4847396e+20
4.3841251e+20
4.6277082e+20
4.4683103e+20
4.3431175e+20
4.245482e+20
4.4675412e+20
4.313468e+20
4.1923664e+20
4.0978053e+20
4.297735e+20
4.1491813e+20
4.0322918e+20
3.9408666e+20
4.3071665e+20
4.2506374e+20
4.2127054e+20
4.1927879e+20
4.1706891e+20
4.1156108e+20
4.0784724e+20
4.0587116e+20
4.0252261e+20
3.9716058e+20
3.9352312e+20
3.9155611e+20
3.8705132e+20
3.8183207e+20
3.7826406e+20
3.7629544e+20
4.1914914e+20
4.2106261e+20
4.253297e+20
4.3240744e+20
4.0569187e+20
4.0748505e+20
4.1155177e+20
4.1833496e+20
3.9131682e+20
3.9297517e+20
3.9682209e+20
4.0328537e+20
3.7598154e+20
3.7748609e+20
3.8108916e+20
3.8720229e+20
4.4292543e+20
4.5772237e+20
4.7789549e+20
5.0486601e+20
4.2844456e+20
4.4269282e+20
4.6214203e+20
4.8816781e+20
4.1295383e+20
4.2661132e+20
4.4528267e+20
4.7029458e+20
3.9639167e+20
4.0941072e+20
4.2724413e+20
4.5116616e+20
0
0
0
0
0
0
0
0
0
0
0
0
0
0
0
0
0
0
0
0
0
0
0
0
0
0
0
0
0
0
0
0
0
0
0
0
0
0
0
0
0
0
0
0
0
0
0
0
0
0
0
0
0
0
0
0
0
0
0
0
0
0
0
0
0
0
0
0
0
0
0
0
0
0
0
0
0
0
0
0
0
0
0
0
0
0
0
0
0
0
0
0
0
0
0
0
0
0
0
0
0
0
0
0
0
0
0
0
0
0
0
0
0
0
0
0
0
0
0
0
0
0
0
0
0
0
0
0
0
0
0
0
0
0
0
0
0
0
0
0
0
0
0
0
0
0
0
0
0
0
0
0
0
0
0
0
0
0
0
0
0
0
0
0
0
0
0
0
0
0
0
0
0
0
0
0
0
0
0
0
0
0
0