/*--------------------------------*- C++ -*----------------------------------*\
| =========                 |                                                 |
| \\      /  F ield         | OpenFOAM: The Open Source CFD Toolbox           |
|  \\    /   O peration     | Version:  1.4.1-dev                             |
|   \\  /    A nd           | Web:      http://www.openfoam.org               |
|    \\/     M anipulation  |                                                 |
\*---------------------------------------------------------------------------*/

FoamFile
{
    version 2.0;
    format ascii;

    root "/home/cliffoi/OpenFOAM/cliffoi-1.4.1-dev/run/diffusionFoam";
    case "oecd_simplified_2G";
    instance "0";
    local "";

    class volScalarField;
    object _151Sm;
}

// * * * * * * * * * * * * * * * * * * * * * * * * * * * * * * * * * * * * * //

dimensions      [0 -3 0 0 0 0 0];

internalField   nonuniform List<scalar> 
9280
(
0
0
0
0
0
0
0
0
0
0
0
0
0
0
0
0
0
0
0
0
0
0
0
0
0
0
0
0
0
0
0
0
0
0
0
0
0
0
0
0
0
0
0
0
0
0
0
0
0
0
0
0
0
0
0
0
0
0
0
0
0
0
0
0
0
0
0
0
0
0
0
0
0
0
0
0
0
0
0
0
0
0
0
0
0
0
0
0
0
0
0
0
0
0
0
0
0
0
0
0
0
0
0
0
0
0
0
0
0
0
0
0
0
0
0
0
0
0
0
0
0
0
0
0
0
0
0
0
0
0
0
0
0
0
0
0
0
0
0
0
0
0
0
0
0
0
0
0
0
0
0
0
0
0
0
0
0
0
0
0
0
0
0
0
0
0
0
0
0
0
0
0
0
0
0
0
0
0
0
0
0
0
0
0
0
0
0
0
0
0
0
0
0
0
0
0
0
0
0
0
0
0
0
0
0
0
0
0
0
0
0
0
0
0
0
0
0
0
0
0
0
0
0
0
0
0
0
0
0
0
0
0
0
0
0
0
0
0
0
0
0
0
0
0
0
0
0
0
0
0
0
0
0
0
0
0
0
0
0
0
0
0
0
0
0
0
0
0
0
0
0
0
0
0
0
0
0
0
0
0
0
0
0
0
0
0
0
0
0
0
0
0
0
0
0
0
0
0
0
0
0
0
0
0
0
0
0
0
0
0
0
0
0
0
0
0
0
0
0
0
0
0
0
0
0
0
0
0
0
0
0
0
0
0
0
0
0
0
0
0
0
0
0
0
0
0
0
0
0
0
0
0
0
0
0
0
0
0
0
0
0
0
0
0
0
0
0
0
0
0
0
0
0
0
0
0
0
0
0
0
0
0
0
0
0
0
0
0
0
0
0
0
0
0
0
0
0
0
0
0
0
0
0
0
0
0
0
0
0
0
0
0
0
0
0
0
0
0
0
0
0
0
0
0
0
0
0
0
0
0
0
0
0
0
0
0
0
0
0
0
0
0
0
0
0
0
0
0
0
0
0
0
0
0
0
0
0
0
0
0
0
0
0
0
0
0
0
0
0
0
0
0
0
0
0
0
0
0
0
0
0
0
0
0
0
0
0
0
0
0
0
0
0
0
0
0
0
0
0
0
0
0
0
0
0
0
0
0
0
0
0
0
0
0
0
0
0
0
0
0
0
0
0
0
0
0
0
0
0
0
0
0
0
0
0
0
0
0
0
0
0
0
0
0
0
0
0
0
0
0
0
0
0
0
0
0
0
0
0
0
0
0
0
0
0
0
0
0
0
0
0
0
0
0
0
0
0
0
0
0
0
0
0
0
0
0
0
0
0
0
0
0
0
0
0
0
0
0
0
0
0
0
0
0
0
0
0
0
0
0
0
0
0
0
0
0
0
0
0
0
0
0
0
0
0
0
0
0
0
0
0
0
0
0
0
0
0
0
0
0
0
0
0
0
0
0
0
0
0
0
0
0
0
0
0
0
0
0
0
0
0
0
0
0
0
0
0
0
0
0
0
0
0
0
0
0
0
0
0
0
0
0
0
0
0
0
0
0
0
0
0
0
0
0
0
0
0
0
0
0
0
0
0
0
0
0
0
0
0
0
0
0
0
0
0
0
0
0
0
0
0
0
0
0
0
0
0
0
0
0
0
0
0
0
0
0
0
0
0
0
0
0
0
0
0
0
0
0
0
0
0
0
0
0
0
0
0
0
0
0
0
0
0
0
0
0
0
0
0
0
0
0
0
0
0
0
0
0
0
0
0
0
0
0
0
0
0
0
0
0
0
0
0
0
0
0
0
0
0
0
0
0
0
0
0
0
0
0
0
0
0
0
0
0
0
0
0
0
0
0
0
0
0
0
0
0
0
0
0
0
0
0
0
0
0
0
0
0
0
0
0
0
0
0
0
0
0
0
0
0
0
0
0
0
0
0
0
0
0
0
0
0
0
0
0
0
0
0
0
0
0
0
0
0
0
0
0
0
0
0
0
0
0
0
0
0
0
0
0
0
0
0
0
0
0
0
0
0
0
0
0
0
0
0
0
0
0
0
0
0
0
0
0
0
0
0
0
0
0
0
0
0
0
0
0
0
0
0
0
0
0
0
0
0
0
0
0
0
0
0
0
0
0
0
0
0
0
0
0
0
0
0
0
0
0
0
0
0
0
0
0
0
0
0
0
0
0
0
0
0
0
0
0
0
0
0
0
0
0
0
0
0
0
0
0
0
0
0
0
0
0
0
0
0
0
0
0
0
0
0
0
0
0
0
0
0
0
0
0
0
0
0
0
0
0
0
0
0
0
0
0
0
0
0
0
0
0
0
0
0
0
0
0
0
0
0
0
0
0
0
0
0
0
0
0
0
0
0
0
0
0
0
0
0
0
0
2.7557903e+21
2.7612101e+21
2.7640317e+21
2.7645449e+21
2.8272979e+21
2.8352029e+21
2.8400624e+21
2.8420869e+21
2.8945944e+21
2.9041165e+21
2.9102256e+21
2.9131038e+21
2.9599536e+21
2.9705108e+21
2.977312e+21
2.9805371e+21
2.7630148e+21
2.7596756e+21
2.7547275e+21
2.7483362e+21
2.8415208e+21
2.8386149e+21
2.833605e+21
2.8266997e+21
2.9129831e+21
2.9101185e+21
2.9047625e+21
2.897148e+21
2.9804224e+21
2.9772334e+21
2.9712395e+21
2.962694e+21
2.7406344e+21
2.7317244e+21
2.7216805e+21
2.7105507e+21
2.8180735e+21
2.807865e+21
2.7961766e+21
2.7830767e+21
2.8874763e+21
2.8759116e+21
2.8625795e+21
2.8475671e+21
2.9518201e+21
2.9388038e+21
2.9237902e+21
2.9068842e+21
2.6983588e+21
2.6851054e+21
2.6707695e+21
2.6553102e+21
2.7686019e+21
2.7527597e+21
2.7355337e+21
2.7168905e+21
2.8309261e+21
2.812677e+21
2.7928158e+21
2.7713242e+21
2.8881528e+21
2.8676305e+21
2.8453266e+21
2.8212373e+21
2.6386711e+21
2.6207875e+21
2.6015982e+21
2.5810632e+21
2.6967902e+21
2.6752024e+21
2.6521265e+21
2.6276151e+21
2.7481831e+21
2.723391e+21
2.6969844e+21
2.6690583e+21
2.7953605e+21
2.7677146e+21
2.7383597e+21
2.7074165e+21
0
0
0
0
0
0
0
0
0
0
0
0
0
0
0
0
0
0
0
0
0
0
0
0
0
0
0
0
0
0
0
0
0
0
0
0
0
0
0
0
0
0
0
0
0
0
0
0
0
0
0
0
0
0
0
0
0
0
0
0
0
0
0
0
0
0
0
0
0
0
0
0
0
0
0
0
0
0
0
0
0
0
0
0
0
0
0
0
0
0
0
0
0
0
0
0
0
0
0
0
0
0
0
0
0
0
0
0
0
0
0
0
0
0
0
0
0
0
0
0
0
0
0
0
0
0
0
0
0
0
0
0
0
0
0
0
0
0
0
0
0
0
0
0
0
0
0
0
0
0
0
0
0
0
0
0
0
0
0
0
0
0
0
0
0
0
0
0
0
0
0
0
0
0
0
0
0
0
0
0
0
0
0
0
0
0
0
0
0
0
0
0
0
0
0
0
0
0
0
0
0
0
0
0
0
0
0
0
0
0
0
0
0
0
0
0
0
0
0
0
0
0
0
0
0
0
0
0
0
0
0
0
0
0
0
0
0
0
0
0
3.024611e+21
3.0358706e+21
3.0430291e+21
3.0462808e+21
3.0891398e+21
3.100911e+21
3.1082276e+21
3.1113068e+21
3.1537587e+21
3.1659228e+21
3.1732689e+21
3.1760425e+21
3.2185026e+21
3.2309767e+21
3.2382596e+21
3.2406288e+21
3.0458779e+21
3.0421048e+21
3.0352519e+21
3.0255944e+21
3.1104246e+21
3.10589e+21
3.0980181e+21
3.0871085e+21
3.1745482e+21
3.1691231e+21
3.1601102e+21
3.1478357e+21
3.2384203e+21
3.2320027e+21
3.2217491e+21
3.2080143e+21
3.0133775e+21
2.9988081e+21
2.9820505e+21
2.9632268e+21
3.0734298e+21
3.0572107e+21
3.0386351e+21
3.0178428e+21
3.1325935e+21
3.1146349e+21
3.0941649e+21
3.0713414e+21
3.1911188e+21
3.1713383e+21
3.1488998e+21
3.1239807e+21
2.9424193e+21
2.9196759e+21
2.895019e+21
2.8684572e+21
2.9949315e+21
2.969963e+21
2.9429719e+21
2.9139784e+21
3.0462786e+21
3.0190524e+21
2.9897101e+21
2.9582832e+21
3.0967123e+21
3.0671855e+21
3.0354608e+21
3.0015818e+21
2.8400012e+21
2.8096843e+21
2.7775822e+21
2.7438324e+21
2.8830046e+21
2.8500952e+21
2.8153383e+21
2.7788845e+21
2.9248048e+21
2.8893301e+21
2.851958e+21
2.8128503e+21
2.9655921e+21
2.9275575e+21
2.8875875e+21
2.8458543e+21
0
0
0
0
0
0
0
0
0
0
0
0
0
0
0
0
0
0
0
0
0
0
0
0
0
0
0
0
0
0
0
0
0
0
0
0
0
0
0
0
0
0
0
0
0
0
0
0
0
0
0
0
0
0
0
0
0
0
0
0
0
0
0
0
0
0
0
0
0
0
0
0
0
0
0
0
0
0
0
0
0
0
0
0
0
0
0
0
0
0
0
0
0
0
0
0
0
0
0
0
0
0
0
0
0
0
0
0
0
0
0
0
0
0
0
0
0
0
0
0
0
0
0
0
0
0
0
0
0
0
0
0
0
0
0
0
0
0
0
0
0
0
0
0
0
0
0
0
0
0
0
0
0
0
0
0
0
0
0
0
0
0
0
0
0
0
0
0
0
0
0
0
0
0
0
0
0
0
0
0
0
0
0
0
0
0
0
0
0
0
0
0
0
0
0
0
0
0
0
0
0
0
0
0
0
0
0
0
0
0
0
0
0
0
0
0
0
0
0
0
0
0
0
0
0
0
0
0
0
0
0
0
0
0
0
0
0
0
0
0
3.2833097e+21
3.296029e+21
3.3031748e+21
3.3050588e+21
3.3480645e+21
3.3609743e+21
3.3679194e+21
3.3692484e+21
3.4126206e+21
3.4256719e+21
3.4323594e+21
3.4330712e+21
3.4768121e+21
3.4899599e+21
3.4963383e+21
3.4963764e+21
3.3020516e+21
3.2945552e+21
3.2829748e+21
3.2676959e+21
3.3653686e+21
3.3567174e+21
3.3437343e+21
3.3268368e+21
3.4282527e+21
3.4183791e+21
3.4039256e+21
3.3853433e+21
3.4905601e+21
3.4794037e+21
3.4634202e+21
3.4430956e+21
3.249067e+21
3.2273898e+21
3.2029141e+21
3.1758382e+21
3.3064031e+21
3.2827618e+21
3.2561876e+21
3.2268999e+21
3.3630418e+21
3.3373779e+21
3.3086516e+21
3.2771054e+21
3.4188718e+21
3.3911355e+21
3.3602129e+21
3.3263703e+21
3.1463114e+21
3.1144406e+21
3.0803002e+21
3.0439461e+21
3.1950674e+21
3.1608137e+21
3.124228e+21
3.0853789e+21
3.2429276e+21
3.2062595e+21
3.1672055e+21
3.125848e+21
3.2898166e+21
3.2507114e+21
3.2091749e+21
3.1653034e+21
3.0054334e+21
2.9648383e+21
2.9222808e+21
2.8779436e+21
3.0443335e+21
3.0011787e+21
2.956045e+21
2.9091253e+21
3.0822658e+21
3.0365573e+21
2.9888632e+21
2.9393866e+21
3.1191883e+21
3.070939e+21
3.0207066e+21
2.9687044e+21
0
0
0
0
0
0
0
0
0
0
0
0
0
0
0
0
0
0
0
0
0
0
0
0
0
0
0
0
0
0
0
0
0
0
0
0
0
0
0
0
0
0
0
0
0
0
0
0
0
0
0
0
0
0
0
0
0
0
0
0
0
0
0
0
0
0
0
0
0
0
0
0
0
0
0
0
0
0
0
0
0
0
0
0
0
0
0
0
0
0
0
0
0
0
0
0
0
0
0
0
0
0
0
0
0
0
0
0
0
0
0
0
0
0
0
0
0
0
0
0
0
0
0
0
0
0
0
0
0
0
0
0
0
0
0
0
0
0
0
0
0
0
0
0
0
0
0
0
0
0
0
0
0
0
0
0
0
0
0
0
0
0
0
0
0
0
0
0
0
0
0
0
0
0
0
0
0
0
0
0
0
0
0
0
0
0
0
0
0
0
0
0
0
0
0
0
0
0
0
0
0
0
0
0
0
0
0
0
0
0
0
0
0
0
0
0
0
0
0
0
0
0
0
0
0
0
0
0
0
0
0
0
0
0
0
0
0
0
0
0
3.5404609e+21
3.5536634e+21
3.5596856e+21
3.5589992e+21
3.6033814e+21
3.6165998e+21
3.6222228e+21
3.6207666e+21
3.6653836e+21
3.6785816e+21
3.6837668e+21
3.6815013e+21
3.7262759e+21
3.7394199e+21
3.7441332e+21
3.7410248e+21
3.5521324e+21
3.5396405e+21
3.5220752e+21
3.4999593e+21
3.6128033e+21
3.5989305e+21
3.5797403e+21
3.5557931e+21
3.6724023e+21
3.6571113e+21
3.6362619e+21
3.610453e+21
3.7307583e+21
3.7140201e+21
3.6914862e+21
3.6637953e+21
3.4737682e+21
3.443919e+21
3.4107657e+21
3.3745987e+21
3.5275991e+21
3.4956069e+21
3.4601986e+21
3.4216895e+21
3.5802307e+21
3.5460756e+21
3.5083987e+21
3.4675408e+21
3.6315295e+21
3.5952025e+21
3.5552544e+21
3.5120521e+21
3.3356484e+21
3.294093e+21
3.2500692e+21
3.2036873e+21
3.3803323e+21
3.336324e+21
3.2898178e+21
3.2409388e+21
3.4237769e+21
3.3773234e+21
3.3283503e+21
3.2769969e+21
3.4658927e+21
3.4170124e+21
3.3655979e+21
3.3118029e+21
3.1550514e+21
3.1042822e+21
3.0515412e+21
2.9970513e+21
3.1898034e+21
3.1365436e+21
3.0813312e+21
3.0243983e+21
3.2233925e+21
3.16768e+21
3.1100412e+21
3.0507173e+21
3.2557691e+21
3.1976503e+21
3.137638e+21
3.0759818e+21
0
0
0
0
0
0
0
0
0
0
0
0
0
0
0
0
0
0
0
0
0
0
0
0
0
0
0
0
0
0
0
0
0
0
0
0
0
0
0
0
0
0
0
0
0
0
0
0
0
0
0
0
0
0
0
0
0
0
0
0
0
0
0
0
0
0
0
0
0
0
0
0
0
0
0
0
0
0
0
0
0
0
0
0
0
0
0
0
0
0
0
0
0
0
0
0
0
0
0
0
0
0
0
0
0
0
0
0
0
0
0
0
0
0
0
0
0
0
0
0
0
0
0
0
0
0
0
0
0
0
0
0
0
0
0
0
0
0
0
0
0
0
0
0
0
0
0
0
0
0
0
0
0
0
0
0
0
0
0
0
0
0
0
0
0
0
0
0
0
0
0
0
0
0
0
0
0
0
0
0
0
0
0
0
0
0
0
0
0
0
0
0
0
0
0
0
0
0
0
0
0
0
0
0
0
0
0
0
0
0
0
0
0
0
0
0
0
0
0
0
0
0
0
0
0
0
0
0
0
0
0
0
0
0
0
0
0
0
0
0
3.7858671e+21
3.7989266e+21
3.8031384e+21
3.7991596e+21
3.8439686e+21
3.8569159e+21
3.8606015e+21
3.8557315e+21
3.9003958e+21
3.9132063e+21
3.9163461e+21
3.9105707e+21
3.9549699e+21
3.9676221e+21
3.9702018e+21
3.9635136e+21
3.7877014e+21
3.7694956e+21
3.7452616e+21
3.7156784e+21
3.843065e+21
3.8233803e+21
3.7974405e+21
3.7659654e+21
3.8966875e+21
3.8755217e+21
3.8478806e+21
3.8145245e+21
3.9484137e+21
3.925774e+21
3.8964459e+21
3.8612307e+21
3.681365e+21
3.6428681e+21
3.6006576e+21
3.5551261e+21
3.729611e+21
3.6889575e+21
3.6445045e+21
3.5966705e+21
3.7761469e+21
3.7333614e+21
3.6866971e+21
3.6365983e+21
3.8208587e+21
3.7759769e+21
3.7271436e+21
3.6748286e+21
3.5065936e+21
3.4553156e+21
3.4014954e+21
3.3453012e+21
3.5457981e+21
3.4921619e+21
3.4359821e+21
3.3774404e+21
3.5834299e+21
3.5274857e+21
3.4690018e+21
3.4081738e+21
3.6194188e+21
3.5612266e+21
3.5005038e+21
3.4374592e+21
3.2868867e+21
3.2264164e+21
3.1640909e+21
3.100168e+21
3.3167028e+21
3.2539437e+21
3.1893726e+21
3.1232549e+21
3.3451789e+21
3.2802015e+21
3.2134592e+21
3.1452248e+21
3.3722812e+21
3.3051631e+21
3.2363306e+21
3.1660629e+21
0
0
0
0
0
0
0
0
0
0
0
0
0
0
0
0
0
0
0
0
0
0
0
0
0
0
0
0
0
0
0
0
0
0
0
0
0
0
0
0
0
0
0
0
0
0
0
0
0
0
0
0
0
0
0
0
0
0
0
0
0
0
0
0
0
0
0
0
0
0
0
0
0
0
0
0
0
0
0
0
0
0
0
0
0
0
0
0
0
0
0
0
0
0
0
0
0
0
0
0
0
0
0
0
0
0
0
0
0
0
0
0
0
0
0
0
0
0
0
0
0
0
0
0
0
0
0
0
0
0
0
0
0
0
0
0
0
0
0
0
0
0
0
0
0
0
0
0
0
0
0
0
0
0
0
0
0
0
0
0
0
0
0
0
0
0
0
0
0
0
0
0
0
0
0
0
0
0
0
0
0
0
0
0
0
0
0
0
0
0
0
0
0
0
0
0
0
0
0
0
0
0
0
0
0
0
0
0
0
0
0
0
0
0
0
0
0
0
0
0
0
0
0
0
0
0
0
0
0
0
0
0
0
0
0
0
0
0
0
0
4.0075188e+21
4.0199948e+21
4.0220052e+21
4.0144038e+21
4.0578787e+21
4.0701637e+21
4.0716011e+21
4.0630933e+21
4.1058946e+21
4.1179775e+21
4.1188436e+21
4.109443e+21
4.1514213e+21
4.1632944e+21
4.1635962e+21
4.1533234e+21
3.9980954e+21
3.9739984e+21
3.943008e+21
3.9059661e+21
4.0455929e+21
4.0200646e+21
3.9874468e+21
3.9486212e+21
4.0907756e+21
4.0638512e+21
4.0296507e+21
3.9890946e+21
4.133522e+21
4.1052458e+21
4.0695168e+21
4.0272936e+21
3.8636397e+21
3.8167084e+21
3.7657593e+21
3.7112874e+21
3.9043908e+21
3.8554676e+21
3.8024666e+21
3.7459073e+21
3.9430214e+21
3.892174e+21
3.8371952e+21
3.7786278e+21
3.9794486e+21
3.9267552e+21
3.8698821e+21
3.8093952e+21
3.6537009e+21
3.5933304e+21
3.5304429e+21
3.4652599e+21
3.6862186e+21
3.6237487e+21
3.5587793e+21
3.4915439e+21
3.7169207e+21
3.6524391e+21
3.5854785e+21
3.5162839e+21
3.7457624e+21
3.6793648e+21
3.6105113e+21
3.5394576e+21
3.3979802e+21
3.328806e+21
3.2579702e+21
3.185758e+21
3.4222512e+21
3.3511117e+21
3.2783648e+21
3.2043015e+21
3.4450735e+21
3.3720652e+21
3.2975048e+21
3.2216881e+21
3.4664306e+21
3.3916554e+21
3.3153833e+21
3.2379146e+21
0
0
0
0
0
0
0
0
0
0
0
0
0
0
0
0
0
0
0
0
0
0
0
0
0
0
0
0
0
0
0
0
0
0
0
0
0
0
0
0
0
0
0
0
0
0
0
0
0
0
0
0
0
0
0
0
0
0
0
0
0
0
0
0
0
0
0
0
0
0
0
0
0
0
0
0
0
0
0
0
0
0
0
0
0
0
0
0
0
0
0
0
0
0
0
0
0
0
0
0
0
0
0
0
0
0
0
0
0
0
0
0
0
0
0
0
0
0
0
0
0
0
0
0
0
0
0
0
0
0
0
0
0
0
0
0
0
0
0
0
0
0
0
0
0
0
0
0
0
0
0
0
0
0
0
0
0
0
0
0
0
0
0
0
0
0
0
0
0
0
0
0
0
0
0
0
0
0
0
0
0
0
0
0
0
0
0
0
0
0
0
0
0
0
0
0
0
0
0
0
0
0
0
0
0
0
0
0
0
0
0
0
0
0
0
0
0
0
0
0
0
0
0
0
0
0
0
0
0
0
0
0
0
0
0
0
0
0
0
0
4.1943239e+21
4.205983e+21
4.2057327e+21
4.1946152e+21
4.2344783e+21
4.2459224e+21
4.2451376e+21
4.2332093e+21
4.2717712e+21
4.2830028e+21
4.2817059e+21
4.2690068e+21
4.3061007e+21
4.3171254e+21
4.3153434e+21
4.3019196e+21
4.1737208e+21
4.1441456e+21
4.1069519e+21
4.0631343e+21
4.2112702e+21
4.1804576e+21
4.1418714e+21
4.0965415e+21
4.246079e+21
4.2140981e+21
4.1742003e+21
4.1274484e+21
4.2780655e+21
4.244993e+21
4.2038722e+21
4.1557965e+21
4.0135983e+21
3.9591461e+21
3.9004717e+21
3.8381625e+21
4.0454042e+21
3.9892895e+21
3.9289152e+21
3.8648891e+21
4.0748081e+21
4.0171353e+21
3.9551706e+21
3.8895404e+21
4.1017593e+21
4.0426407e+21
3.9792019e+21
3.9120874e+21
3.7727047e+21
3.7044945e+21
3.6338532e+21
3.5610467e+21
3.7977146e+21
3.7278021e+21
3.6554844e+21
3.5810368e+21
3.8207644e+21
3.7492662e+21
3.6753892e+21
3.5994174e+21
3.8418314e+21
3.7688697e+21
3.6935557e+21
3.616181e+21
3.4863098e+21
3.4098742e+21
3.3319963e+21
3.2529804e+21
3.5047017e+21
3.4267165e+21
3.3473422e+21
3.2668868e+21
3.5216e+21
3.4421796e+21
3.3614216e+21
3.2796368e+21
3.537001e+21
3.4562633e+21
3.3742366e+21
3.2912346e+21
0
0
0
0
0
0
0
0
0
0
0
0
0
0
0
0
0
0
0
0
0
0
0
0
0
0
0
0
0
0
0
0
0
0
0
0
0
0
0
0
0
0
0
0
0
0
0
0
0
0
0
0
0
0
0
0
0
0
0
0
0
0
0
0
0
0
0
0
0
0
0
0
0
0
0
0
0
0
0
0
0
0
0
0
0
0
0
0
0
0
0
0
0
0
0
0
0
0
0
0
0
0
0
0
0
0
0
0
0
0
0
0
0
0
0
0
0
0
0
0
0
0
0
0
0
0
0
0
0
0
0
0
0
0
0
0
0
0
0
0
0
0
0
0
0
0
0
0
0
0
0
0
0
0
0
0
0
0
0
0
0
0
0
0
0
0
0
0
0
0
0
0
0
0
0
0
0
0
0
0
0
0
0
0
0
0
0
0
0
0
0
0
0
0
0
0
0
0
0
0
0
0
0
0
0
0
0
0
0
0
0
0
0
0
0
0
0
0
0
0
0
0
0
0
0
0
0
0
0
0
0
0
0
0
0
0
0
0
0
0
4.337376e+21
4.3482023e+21
4.3459665e+21
4.3318696e+21
4.3655172e+21
4.3761565e+21
4.3735024e+21
4.3587888e+21
4.3904555e+21
4.4009216e+21
4.3978884e+21
4.3826191e+21
4.4121328e+21
4.4224418e+21
4.4190717e+21
4.4033118e+21
4.307158e+21
4.2730775e+21
4.2308292e+21
4.1815353e+21
4.3332943e+21
4.2982955e+21
4.255022e+21
4.2046219e+21
4.3564215e+21
4.3205997e+21
4.2764089e+21
4.2250205e+21
4.3764955e+21
4.3399509e+21
4.2949559e+21
4.2427021e+21
4.1262145e+21
4.065769e+21
4.0009794e+21
3.9325062e+21
4.1481371e+21
4.08649e+21
4.0204785e+21
3.9507779e+21
4.167497e+21
4.104779e+21
4.0376798e+21
3.9668877e+21
4.1842704e+21
4.1206168e+21
4.0525684e+21
3.9808248e+21
3.8608973e+21
3.7865995e+21
3.7099751e+21
3.6313228e+21
3.8779481e+21
3.8024461e+21
3.7246419e+21
3.6448406e+21
3.8929735e+21
3.8164027e+21
3.7375527e+21
3.6567339e+21
3.9059662e+21
3.8284656e+21
3.7487065e+21
3.6670042e+21
3.5509035e+21
3.4689689e+21
3.385791e+21
3.3016858e+21
3.5633079e+21
3.4802993e+21
3.3960895e+21
3.3109965e+21
3.5742163e+21
3.4902585e+21
3.4051376e+21
3.3191734e+21
3.583632e+21
3.4988515e+21
3.4129416e+21
3.3262235e+21
0
0
0
0
0
0
0
0
0
0
0
0
0
0
0
0
0
0
0
0
0
0
0
0
0
0
0
0
0
0
0
0
0
0
0
0
0
0
0
0
0
0
0
0
0
0
0
0
0
0
0
0
0
0
0
0
0
0
0
0
0
0
0
0
0
0
0
0
0
0
0
0
0
0
0
0
0
0
0
0
0
0
0
0
0
0
0
0
0
0
0
0
0
0
0
0
0
0
0
0
0
0
0
0
0
0
0
0
0
0
0
0
0
0
0
0
0
0
0
0
0
0
0
0
0
0
0
0
0
0
0
0
0
0
0
0
0
0
0
0
0
0
0
0
0
0
0
0
0
0
0
0
0
0
0
0
0
0
0
0
0
0
0
0
0
0
0
0
0
0
0
0
0
0
0
0
0
0
0
0
0
0
0
0
0
0
0
0
0
0
0
0
0
0
0
0
0
0
0
0
0
0
0
0
0
0
0
0
0
0
0
0
0
0
0
0
0
0
0
0
0
0
0
0
0
0
0
0
0
0
0
0
0
0
0
0
0
0
0
0
4.4305015e+21
4.4406713e+21
4.4370096e+21
4.4208277e+21
4.445524e+21
4.4555745e+21
4.4516685e+21
4.4351359e+21
4.4571729e+21
4.4671249e+21
4.4630241e+21
4.4462146e+21
4.4654302e+21
4.4753058e+21
4.471061e+21
4.4540499e+21
4.3934807e+21
4.3563178e+21
4.3106359e+21
4.2576441e+21
4.4073499e+21
4.3696765e+21
4.3234287e+21
4.2698296e+21
4.4180836e+21
4.3800104e+21
4.3333203e+21
4.2792477e+21
4.4256699e+21
4.3873096e+21
4.340303e+21
4.2858923e+21
4.1984385e+21
4.1339889e+21
4.0651336e+21
3.9925819e+21
4.2099882e+21
4.1448852e+21
4.0753683e+21
4.0021546e+21
4.2189111e+21
4.1532998e+21
4.0832689e+21
4.0095415e+21
4.2252031e+21
4.1592307e+21
4.088835e+21
4.0147435e+21
3.9169218e+21
3.8386331e+21
3.7581041e+21
3.6756539e+21
3.9258387e+21
3.8469055e+21
3.7657474e+21
3.6826868e+21
3.9327171e+21
3.8532847e+21
3.7716398e+21
3.6881073e+21
3.9375593e+21
3.8577741e+21
3.7757855e+21
3.6919203e+21
3.5915592e+21
3.5060836e+21
3.4195078e+21
3.3321539e+21
3.5980028e+21
3.5119608e+21
3.4248426e+21
3.3369713e+21
3.602968e+21
3.5164888e+21
3.4289524e+21
3.3406824e+21
3.6064604e+21
3.5196735e+21
3.4318432e+21
3.3432933e+21
0
0
0
0
0
0
0
0
0
0
0
0
0
0
0
0
0
0
0
0
0
0
0
0
0
0
0
0
0
0
0
0
0
0
0
0
0
0
0
0
0
0
0
0
0
0
0
0
0
0
0
0
0
0
0
0
0
0
0
0
0
0
0
0
0
0
0
0
0
0
0
0
0
0
0
0
0
0
0
0
0
0
0
0
0
0
0
0
0
0
0
0
0
0
0
0
0
0
0
0
0
0
0
0
0
0
0
0
0
0
0
0
0
0
0
0
0
0
0
0
0
0
0
0
0
0
0
0
0
0
0
0
0
0
0
0
0
0
0
0
0
0
0
0
0
0
0
0
0
0
0
0
0
0
0
0
0
0
0
0
0
0
0
0
0
0
0
0
0
0
0
0
0
0
0
0
0
0
0
0
0
0
0
0
0
0
0
0
0
0
0
0
0
0
0
0
0
0
0
0
0
0
0
0
0
0
0
0
0
0
0
0
0
0
0
0
0
0
0
0
0
0
0
0
0
0
0
0
0
0
0
0
0
0
0
0
0
0
0
0
4.4702875e+21
4.4801094e+21
4.4757722e+21
4.4586361e+21
4.4717456e+21
4.4815368e+21
4.4771592e+21
4.459975e+21
4.4698145e+21
4.4795978e+21
4.4752319e+21
4.4580764e+21
4.4645131e+21
4.4743111e+21
4.4700082e+21
4.4529574e+21
4.4301041e+21
4.3915706e+21
4.3443746e+21
4.2897628e+21
4.4313888e+21
4.3927967e+21
4.3455388e+21
4.2908632e+21
4.4295335e+21
4.3909969e+21
4.3438045e+21
4.2892021e+21
4.4245546e+21
4.3861868e+21
4.3391861e+21
4.2847931e+21
4.2288648e+21
4.1626791e+21
4.0920689e+21
4.017764e+21
4.2299004e+21
4.1636501e+21
4.0929759e+21
4.0186083e+21
4.2283186e+21
4.1621517e+21
4.0915637e+21
4.0172839e+21
4.2241316e+21
4.1581953e+21
4.0878427e+21
4.0138001e+21
3.9403694e+21
3.8603783e+21
3.7781897e+21
3.6941312e+21
3.9411528e+21
3.8611029e+21
3.7788579e+21
3.6947456e+21
3.9399166e+21
3.8599546e+21
3.7777965e+21
3.6937694e+21
3.9366693e+21
3.856941e+21
3.7750123e+21
3.6912088e+21
3.6084854e+21
3.5215206e+21
3.4335207e+21
3.3448096e+21
3.6090487e+21
3.5220356e+21
3.4339901e+21
3.3452363e+21
3.6081558e+21
3.5212235e+21
3.4332562e+21
3.3445777e+21
3.605812e+21
3.5190892e+21
3.4313232e+21
3.3428377e+21
0
0
0
0
0
0
0
0
0
0
0
0
0
0
0
0
0
0
0
0
0
0
0
0
0
0
0
0
0
0
0
0
0
0
0
0
0
0
0
0
0
0
0
0
0
0
0
0
0
0
0
0
0
0
0
0
0
0
0
0
0
0
0
0
0
0
0
0
0
0
0
0
0
0
0
0
0
0
0
0
0
0
0
0
0
0
0
0
0
0
0
0
0
0
0
0
0
0
0
0
0
0
0
0
0
0
0
0
0
0
0
0
0
0
0
0
0
0
0
0
0
0
0
0
0
0
0
0
0
0
0
0
0
0
0
0
0
0
0
0
0
0
0
0
0
0
0
0
0
0
0
0
0
0
0
0
0
0
0
0
0
0
0
0
0
0
0
0
0
0
0
0
0
0
0
0
0
0
0
0
0
0
0
0
0
0
0
0
0
0
0
0
0
0
0
0
0
0
0
0
0
0
0
0
0
0
0
0
0
0
0
0
0
0
0
0
0
0
0
0
0
0
0
0
0
0
0
0
0
0
0
0
0
0
0
0
0
0
0
0
4.4558693e+21
4.4657038e+21
4.4615142e+21
4.444643e+21
4.4439201e+21
4.4538117e+21
4.4497842e+21
4.4331654e+21
4.4287113e+21
4.4386794e+21
4.4348608e+21
4.4185647e+21
4.410298e+21
4.4203602e+21
4.4167948e+21
4.4008887e+21
4.4164752e+21
4.3783879e+21
4.3317036e+21
4.2776542e+21
4.4053257e+21
4.3676281e+21
4.3213823e+21
4.2678082e+21
4.3911431e+21
4.3539415e+21
4.3082531e+21
4.255283e+21
4.3739719e+21
4.3373687e+21
4.2923528e+21
4.2401112e+21
4.2173558e+21
4.1517954e+21
4.0818258e+21
4.0081684e+21
4.2080116e+21
4.1429702e+21
4.0735288e+21
4.0004024e+21
4.1961236e+21
4.131741e+21
4.0629703e+21
3.9905179e+21
4.1817206e+21
4.1181332e+21
4.050172e+21
3.9785335e+21
3.931421e+21
3.8520709e+21
3.7705127e+21
3.6870701e+21
3.9241831e+21
3.8453541e+21
3.7643061e+21
3.6813601e+21
3.9149692e+21
3.8368016e+21
3.7564014e+21
3.6740861e+21
3.9037946e+21
3.8264261e+21
3.7468088e+21
3.665256e+21
3.6020229e+21
3.5156372e+21
3.428195e+21
3.3400194e+21
3.5967939e+21
3.5108719e+21
3.4238751e+21
3.3361255e+21
3.5901307e+21
3.5047977e+21
3.4183666e+21
3.3311583e+21
3.5820395e+21
3.4974192e+21
3.4116727e+21
3.3251198e+21
0
0
0
0
0
0
0
0
0
0
0
0
0
0
0
0
0
0
0
0
0
0
0
0
0
0
0
0
0
0
0
0
0
0
0
0
0
0
0
0
0
0
0
0
0
0
0
0
0
0
0
0
0
0
0
0
0
0
0
0
0
0
0
0
0
0
0
0
0
0
0
0
0
0
0
0
0
0
0
0
0
0
0
0
0
0
0
0
0
0
0
0
0
0
0
0
0
0
0
0
0
0
0
0
0
0
0
0
0
0
0
0
0
0
0
0
0
0
0
0
0
0
0
0
0
0
0
0
0
0
0
0
0
0
0
0
0
0
0
0
0
0
0
0
0
0
0
0
0
0
0
0
0
0
0
0
0
0
0
0
0
0
0
0
0
0
0
0
0
0
0
0
0
0
0
0
0
0
0
0
0
0
0
0
0
0
0
0
0
0
0
0
0
0
0
0
0
0
0
0
0
0
0
0
0
0
0
0
0
0
0
0
0
0
0
0
0
0
0
0
0
0
0
0
0
0
0
0
0
0
0
0
0
0
0
0
0
0
0
0
4.3887444e+21
4.3989163e+21
4.3956456e+21
4.3801934e+21
4.3641238e+21
4.374419e+21
4.3714813e+21
4.3565425e+21
4.3365194e+21
4.3469488e+21
4.3443786e+21
4.3300086e+21
4.3060235e+21
4.3165953e+21
4.3144234e+21
4.3006724e+21
4.3538639e+21
4.3179572e+21
4.2737242e+21
4.2223312e+21
4.3308784e+21
4.2957613e+21
4.2524164e+21
4.2019868e+21
4.3050826e+21
4.2708425e+21
4.2284851e+21
4.1791276e+21
4.2765516e+21
4.2432698e+21
4.2019928e+21
4.1538096e+21
4.1648365e+21
4.102176e+21
4.035159e+21
3.9644702e+21
4.1455097e+21
4.0839029e+21
4.01796e+21
3.9483524e+21
4.1237841e+21
4.0633521e+21
3.9986078e+21
3.9302077e+21
4.0997092e+21
4.0405669e+21
3.9771396e+21
3.9100677e+21
3.8906769e+21
3.8142419e+21
3.7355398e+21
3.6548788e+21
3.8756363e+21
3.8002655e+21
3.7226074e+21
3.6429646e+21
3.8586958e+21
3.7845157e+21
3.7080267e+21
3.6295249e+21
3.8398817e+21
3.767014e+21
3.6918149e+21
3.6145734e+21
3.5725269e+21
3.488741e+21
3.4037967e+21
3.318012e+21
3.5616004e+21
3.4787686e+21
3.394742e+21
3.309837e+21
3.5492689e+21
3.4675082e+21
3.3845129e+21
3.3005971e+21
3.5355423e+21
3.454967e+21
3.373114e+21
3.2902952e+21
0
0
0
0
0
0
0
0
0
0
0
0
0
0
0
0
0
0
0
0
0
0
0
0
0
0
0
0
0
0
0
0
0
0
0
0
0
0
0
0
0
0
0
0
0
0
0
0
0
0
0
0
0
0
0
0
0
0
0
0
0
0
0
0
0
0
0
0
0
0
0
0
0
0
0
0
0
0
0
0
0
0
0
0
0
0
0
0
0
0
0
0
0
0
0
0
0
0
0
0
0
0
0
0
0
0
0
0
0
0
0
0
0
0
0
0
0
0
0
0
0
0
0
0
0
0
0
0
0
0
0
0
0
0
0
0
0
0
0
0
0
0
0
0
0
0
0
0
0
0
0
0
0
0
0
0
0
0
0
0
0
0
0
0
0
0
0
0
0
0
0
0
0
0
0
0
0
0
0
0
0
0
0
0
0
0
0
0
0
0
0
0
0
0
0
0
0
0
0
0
0
0
0
0
0
0
0
0
0
0
0
0
0
0
0
0
0
0
0
0
0
0
0
0
0
0
0
0
0
0
0
0
0
0
0
0
0
0
0
0
4.2727379e+21
4.2834576e+21
4.2817104e+21
4.2686234e+21
4.2367742e+21
4.2476442e+21
4.2463437e+21
4.2339601e+21
4.1982533e+21
4.2092729e+21
4.2084364e+21
4.1967894e+21
4.1573054e+21
4.1684706e+21
4.1681106e+21
4.1572274e+21
4.2453688e+21
4.2131198e+21
4.1730092e+21
4.1260955e+21
4.2116261e+21
4.1804773e+21
4.1416113e+21
4.0960545e+21
4.1754236e+21
4.1454349e+21
4.1078839e+21
4.0637631e+21
4.13687e+21
4.1080934e+21
4.0719193e+21
4.0293051e+21
4.0733405e+21
4.0155957e+21
3.9535973e+21
3.8879681e+21
4.0447396e+21
3.9884927e+21
3.9280278e+21
3.863949e+21
4.0139749e+21
3.9593181e+21
3.9004838e+21
3.8380557e+21
3.9811212e+21
3.9281386e+21
3.8710234e+21
3.8103385e+21
3.8192239e+21
3.7477849e+21
3.6739918e+21
3.5981254e+21
3.7967562e+21
3.7268567e+21
3.6545802e+21
3.5801993e+21
3.7725171e+21
3.7042612e+21
3.6336064e+21
3.560816e+21
3.7465495e+21
3.6800347e+21
3.6111004e+21
3.5399999e+21
3.5204326e+21
3.4411537e+21
3.3605516e+21
3.2789351e+21
3.5039538e+21
3.4260788e+21
3.346833e+21
3.2665219e+21
3.4861224e+21
3.4097548e+21
3.3319672e+21
3.2530616e+21
3.4669578e+21
3.3921967e+21
3.3159656e+21
3.2385623e+21
0
0
0
0
0
0
0
0
0
0
0
0
0
0
0
0
0
0
0
0
0
0
0
0
0
0
0
0
0
0
0
0
0
0
0
0
0
0
0
0
0
0
0
0
0
0
0
0
0
0
0
0
0
0
0
0
0
0
0
0
0
0
0
0
0
0
0
0
0
0
0
0
0
0
0
0
0
0
0
0
0
0
0
0
0
0
0
0
0
0
0
0
0
0
0
0
0
0
0
0
0
0
0
0
0
0
0
0
0
0
0
0
0
0
0
0
0
0
0
0
0
0
0
0
0
0
0
0
0
0
0
0
0
0
0
0
0
0
0
0
0
0
0
0
0
0
0
0
0
0
0
0
0
0
0
0
0
0
0
0
0
0
0
0
0
0
0
0
0
0
0
0
0
0
0
0
0
0
0
0
0
0
0
0
0
0
0
0
0
0
0
0
0
0
0
0
0
0
0
0
0
0
0
0
0
0
0
0
0
0
0
0
0
0
0
0
0
0
0
0
0
0
0
0
0
0
0
0
0
0
0
0
0
0
0
0
0
0
0
0
4.1140696e+21
4.1253734e+21
4.1254972e+21
4.1153987e+21
4.0686939e+21
4.0801257e+21
4.0807359e+21
4.0714365e+21
4.0213342e+21
4.0328804e+21
4.0339744e+21
4.0254818e+21
3.9721541e+21
3.9837979e+21
3.9853681e+21
3.9776836e+21
4.0960827e+21
4.0685617e+21
4.0338178e+21
3.9927717e+21
4.053187e+21
4.0269568e+21
3.9936871e+21
3.9542612e+21
4.0083165e+21
3.9834036e+21
3.9516431e+21
3.9138799e+21
3.9616121e+21
3.9380344e+21
3.9078085e+21
3.8717408e+21
3.9462608e+21
3.895027e+21
3.8397109e+21
3.7808534e+21
3.9094827e+21
3.8600631e+21
3.8066169e+21
3.7496621e+21
3.8708831e+21
3.8233335e+21
3.7718183e+21
3.7168323e+21
3.8305652e+21
3.7849311e+21
3.7353983e+21
3.6824377e+21
3.7189015e+21
3.6542179e+21
3.5870961e+21
3.5177789e+21
3.6896264e+21
3.6268563e+21
3.5616318e+21
3.4941847e+21
3.6587832e+21
3.5980006e+21
3.5347507e+21
3.4692534e+21
3.6264363e+21
3.5677068e+21
3.5065004e+21
3.4430253e+21
3.4464822e+21
3.373422e+21
3.2988415e+21
3.2230341e+21
3.4247218e+21
3.3534515e+21
3.2806112e+21
3.2064891e+21
3.401706e+21
3.3323092e+21
3.2612936e+21
3.1889421e+21
3.3774686e+21
3.3100226e+21
3.240911e+21
3.1704107e+21
0
0
0
0
0
0
0
0
0
0
0
0
0
0
0
0
0
0
0
0
0
0
0
0
0
0
0
0
0
0
0
0
0
0
0
0
0
0
0
0
0
0
0
0
0
0
0
0
0
0
0
0
0
0
0
0
0
0
0
0
0
0
0
0
0
0
0
0
0
0
0
0
0
0
0
0
0
0
0
0
0
0
0
0
0
0
0
0
0
0
0
0
0
0
0
0
0
0
0
0
0
0
0
0
0
0
0
0
0
0
0
0
0
0
0
0
0
0
0
0
0
0
0
0
0
0
0
0
0
0
0
0
0
0
0
0
0
0
0
0
0
0
0
0
0
0
0
0
0
0
0
0
0
0
0
0
0
0
0
0
0
0
0
0
0
0
0
0
0
0
0
0
0
0
0
0
0
0
0
0
0
0
0
0
0
0
0
0
0
0
0
0
0
0
0
0
0
0
0
0
0
0
0
0
0
0
0
0
0
0
0
0
0
0
0
0
0
0
0
0
0
0
0
0
0
0
0
0
0
0
0
0
0
0
0
0
0
0
0
0
3.9213241e+21
3.9330455e+21
3.9350794e+21
3.9281977e+21
3.8690203e+21
3.8807965e+21
3.8832767e+21
3.8771863e+21
3.8154242e+21
3.8272293e+21
3.8301338e+21
3.824817e+21
3.7607209e+21
3.7725265e+21
3.7758288e+21
3.7712618e+21
3.9132221e+21
3.8909887e+21
3.8623135e+21
3.8279641e+21
3.863301e+21
3.8424123e+21
3.8152946e+21
3.7826762e+21
3.8120088e+21
3.7924569e+21
3.7668939e+21
3.7360097e+21
3.7595103e+21
3.7412789e+21
3.7172589e+21
3.6881021e+21
3.7886389e+21
3.7449557e+21
3.6974465e+21
3.6465579e+21
3.7452205e+21
3.7035133e+21
3.6580587e+21
3.6092787e+21
3.7004322e+21
3.6607158e+21
3.6173363e+21
3.5706912e+21
3.6544016e+21
3.6166802e+21
3.5753859e+21
3.5308918e+21
3.5926561e+21
3.536036e+21
3.4769338e+21
3.4155454e+21
3.5575184e+21
3.5030547e+21
3.4461087e+21
3.3868632e+21
3.5211044e+21
3.4688346e+21
3.4140875e+21
3.3570329e+21
3.4835004e+21
3.4334523e+21
3.3809377e+21
3.3261129e+21
3.3520473e+21
3.2866231e+21
3.219489e+21
3.1509156e+21
3.3254842e+21
3.2621459e+21
3.1970566e+21
3.1304803e+21
3.2978255e+21
3.23663e+21
3.1736466e+21
3.1091318e+21
3.2691215e+21
3.2101183e+21
3.149295e+21
3.0869004e+21
0
0
0
0
0
0
0
0
0
0
0
0
0
0
0
0
0
0
0
0
0
0
0
0
0
0
0
0
0
0
0
0
0
0
0
0
0
0
0
0
0
0
0
0
0
0
0
0
0
0
0
0
0
0
0
0
0
0
0
0
0
0
0
0
0
0
0
0
0
0
0
0
0
0
0
0
0
0
0
0
0
0
0
0
0
0
0
0
0
0
0
0
0
0
0
0
0
0
0
0
0
0
0
0
0
0
0
0
0
0
0
0
0
0
0
0
0
0
0
0
0
0
0
0
0
0
0
0
0
0
0
0
0
0
0
0
0
0
0
0
0
0
0
0
0
0
0
0
0
0
0
0
0
0
0
0
0
0
0
0
0
0
0
0
0
0
0
0
0
0
0
0
0
0
0
0
0
0
0
0
0
0
0
0
0
0
0
0
0
0
0
0
0
0
0
0
0
0
0
0
0
0
0
0
0
0
0
0
0
0
0
0
0
0
0
0
0
0
0
0
0
0
0
0
0
0
0
0
0
0
0
0
0
0
0
0
0
0
0
0
3.7050982e+21
3.7168732e+21
3.7205427e+21
3.7166959e+21
3.6487454e+21
3.6604565e+21
3.6644582e+21
3.6612966e+21
3.5918518e+21
3.6034631e+21
3.6077585e+21
3.605242e+21
3.5346053e+21
3.5460789e+21
3.5506257e+21
3.5487092e+21
3.7059738e+21
3.6890385e+21
3.6665409e+21
3.6390954e+21
3.65157e+21
3.6358986e+21
3.6148942e+21
3.5891344e+21
3.5964702e+21
3.5820233e+21
3.5624748e+21
3.5383665e+21
3.5408458e+21
3.5275769e+21
3.5094389e+21
3.4869391e+21
3.6072605e+21
3.5715282e+21
3.5323189e+21
3.4899814e+21
3.5591443e+21
3.5253852e+21
3.4882504e+21
3.448065e+21
3.5101905e+21
3.4783788e+21
3.4432982e+21
3.4052502e+21
3.4605378e+21
3.4306382e+21
3.3975813e+21
3.3616462e+21
3.4447973e+21
3.3969889e+21
3.3467307e+21
3.2941659e+21
3.4050898e+21
3.359529e+21
3.3115417e+21
3.261258e+21
3.3644754e+21
3.3211603e+21
3.2754491e+21
3.2274582e+21
3.3230535e+21
3.2819726e+21
3.2385327e+21
3.1928376e+21
3.2394265e+21
3.1826575e+21
3.1240414e+21
3.0638191e+21
3.2087982e+21
3.1542971e+21
3.0979282e+21
3.0399242e+21
3.1772969e+21
3.1250897e+21
3.0710007e+21
3.015254e+21
3.144985e+21
3.0950894e+21
3.0433057e+21
2.9898489e+21
0
0
0
0
0
0
0
0
0
0
0
0
0
0
0
0
0
0
0
0
0
0
0
0
0
0
0
0
0
0
0
0
0
0
0
0
0
0
0
0
0
0
0
0
0
0
0
0
0
0
0
0
0
0
0
0
0
0
0
0
0
0
0
0
0
0
0
0
0
0
0
0
0
0
0
0
0
0
0
0
0
0
0
0
0
0
0
0
0
0
0
0
0
0
0
0
0
0
0
0
0
0
0
0
0
0
0
0
0
0
0
0
0
0
0
0
0
0
0
0
0
0
0
0
0
0
0
0
0
0
0
0
0
0
0
0
0
0
0
0
0
0
0
0
0
0
0
0
0
0
0
0
0
0
0
0
0
0
0
0
0
0
0
0
0
0
0
0
0
0
0
0
0
0
0
0
0
0
0
0
0
0
0
0
0
0
0
0
0
0
0
0
0
0
0
0
0
0
0
0
0
0
0
0
0
0
0
0
0
0
0
0
0
0
0
0
0
0
0
0
0
0
0
0
0
0
0
0
0
0
0
0
0
0
0
0
0
0
0
0
3.4771909e+21
3.4884867e+21
3.4932392e+21
3.4918729e+21
3.4197893e+21
3.4308651e+21
3.4357742e+21
3.4349039e+21
3.3625751e+21
3.3733867e+21
3.3784001e+21
3.3779673e+21
3.3057156e+21
3.3162166e+21
3.3212788e+21
3.3212207e+21
3.4848657e+21
3.4727216e+21
3.4559414e+21
3.4349989e+21
3.4286953e+21
3.4176164e+21
3.4021339e+21
3.3826898e+21
3.3724943e+21
3.3624149e+21
3.3481634e+21
3.330151e+21
3.3164152e+21
3.3072637e+21
3.2941694e+21
3.2775146e+21
3.4103239e+21
3.3822919e+21
3.351219e+21
3.3173625e+21
3.3596844e+21
3.3334664e+21
3.3043284e+21
3.2725066e+21
3.30875e+21
3.2842839e+21
3.2570226e+21
3.2271822e+21
3.257645e+21
3.2348599e+21
3.2094079e+21
3.1814865e+21
3.2809237e+21
3.2420556e+21
3.2008731e+21
3.1574673e+21
3.2381841e+21
3.201498e+21
3.1625495e+21
3.1214178e+21
3.1949288e+21
3.1603845e+21
3.1236373e+21
3.0847554e+21
3.1512455e+21
3.118793e+21
3.0842052e+21
3.04754e+21
3.1119252e+21
3.064351e+21
3.0148904e+21
2.9637495e+21
3.0781791e+21
3.0329283e+21
2.9858015e+21
2.9369959e+21
3.043805e+21
3.0008715e+21
2.9560822e+21
2.9096251e+21
3.008854e+21
2.9682242e+21
2.9257692e+21
2.8816682e+21
0
0
0
0
0
0
0
0
0
0
0
0
0
0
0
0
0
0
0
0
0
0
0
0
0
0
0
0
0
0
0
0
0
0
0
0
0
0
0
0
0
0
0
0
0
0
0
0
0
0
0
0
0
0
0
0
0
0
0
0
0
0
0
0
0
0
0
0
0
0
0
0
0
0
0
0
0
0
0
0
0
0
0
0
0
0
0
0
0
0
0
0
0
0
0
0
0
0
0
0
0
0
0
0
0
0
0
0
0
0
0
0
0
0
0
0
0
0
0
0
0
0
0
0
0
0
0
0
0
0
0
0
0
0
0
0
0
0
0
0
0
0
0
0
0
0
0
0
0
0
0
0
0
0
0
0
0
0
0
0
0
0
0
0
0
0
0