/*--------------------------------*- C++ -*----------------------------------*\
| =========                 |                                                 |
| \\      /  F ield         | OpenFOAM: The Open Source CFD Toolbox           |
|  \\    /   O peration     | Version:  1.4.1-dev                             |
|   \\  /    A nd           | Web:      http://www.openfoam.org               |
|    \\/     M anipulation  |                                                 |
\*---------------------------------------------------------------------------*/

FoamFile
{
    version 2.0;
    format ascii;

    root "/home/cliffoi/OpenFOAM/cliffoi-1.4.1-dev/run/diffusionFoam";
    case "oecd_simplified_2G";
    instance "0";
    local "";

    class volScalarField;
    object _151Pm;
}

// * * * * * * * * * * * * * * * * * * * * * * * * * * * * * * * * * * * * * //

dimensions      [0 -3 0 0 0 0 0];

internalField   nonuniform List<scalar> 
9280
(
0
0
0
0
0
0
0
0
0
0
0
0
0
0
0
0
0
0
0
0
0
0
0
0
0
0
0
0
0
0
0
0
0
0
0
0
0
0
0
0
0
0
0
0
0
0
0
0
0
0
0
0
0
0
0
0
0
0
0
0
0
0
0
0
0
0
0
0
0
0
0
0
0
0
0
0
0
0
0
0
0
0
0
0
0
0
0
0
0
0
0
0
0
0
0
0
0
0
0
0
0
0
0
0
0
0
0
0
0
0
0
0
0
0
0
0
0
0
0
0
0
0
0
0
0
0
0
0
0
0
0
0
0
0
0
0
0
0
0
0
0
0
0
0
0
0
0
0
0
0
0
0
0
0
0
0
0
0
0
0
0
0
0
0
0
0
0
0
0
0
0
0
0
0
0
0
0
0
0
0
0
0
0
0
0
0
0
0
0
0
0
0
0
0
0
0
0
0
0
0
0
0
0
0
0
0
0
0
0
0
0
0
0
0
0
0
0
0
0
0
0
0
0
0
0
0
0
0
0
0
0
0
0
0
0
0
0
0
0
0
0
0
0
0
0
0
0
0
0
0
0
0
0
0
0
0
0
0
0
0
0
0
0
0
0
0
0
0
0
0
0
0
0
0
0
0
0
0
0
0
0
0
0
0
0
0
0
0
0
0
0
0
0
0
0
0
0
0
0
0
0
0
0
0
0
0
0
0
0
0
0
0
0
0
0
0
0
0
0
0
0
0
0
0
0
0
0
0
0
0
0
0
0
0
0
0
0
0
0
0
0
0
0
0
0
0
0
0
0
0
0
0
0
0
0
0
0
0
0
0
0
0
0
0
0
0
0
0
0
0
0
0
0
0
0
0
0
0
0
0
0
0
0
0
0
0
0
0
0
0
0
0
0
0
0
0
0
0
0
0
0
0
0
0
0
0
0
0
0
0
0
0
0
0
0
0
0
0
0
0
0
0
0
0
0
0
0
0
0
0
0
0
0
0
0
0
0
0
0
0
0
0
0
0
0
0
0
0
0
0
0
0
0
0
0
0
0
0
0
0
0
0
0
0
0
0
0
0
0
0
0
0
0
0
0
0
0
0
0
0
0
0
0
0
0
0
0
0
0
0
0
0
0
0
0
0
0
0
0
0
0
0
0
0
0
0
0
0
0
0
0
0
0
0
0
0
0
0
0
0
0
0
0
0
0
0
0
0
0
0
0
0
0
0
0
0
0
0
0
0
0
0
0
0
0
0
0
0
0
0
0
0
0
0
0
0
0
0
0
0
0
0
0
0
0
0
0
0
0
0
0
0
0
0
0
0
0
0
0
0
0
0
0
0
0
0
0
0
0
0
0
0
0
0
0
0
0
0
0
0
0
0
0
0
0
0
0
0
0
0
0
0
0
0
0
0
0
0
0
0
0
0
0
0
0
0
0
0
0
0
0
0
0
0
0
0
0
0
0
0
0
0
0
0
0
0
0
0
0
0
0
0
0
0
0
0
0
0
0
0
0
0
0
0
0
0
0
0
0
0
0
0
0
0
0
0
0
0
0
0
0
0
0
0
0
0
0
0
0
0
0
0
0
0
0
0
0
0
0
0
0
0
0
0
0
0
0
0
0
0
0
0
0
0
0
0
0
0
0
0
0
0
0
0
0
0
0
0
0
0
0
0
0
0
0
0
0
0
0
0
0
0
0
0
0
0
0
0
0
0
0
0
0
0
0
0
0
0
0
0
0
0
0
0
0
0
0
0
0
0
0
0
0
0
0
0
0
0
0
0
0
0
0
0
0
0
0
0
0
0
0
0
0
0
0
0
0
0
0
0
0
0
0
0
0
0
0
0
0
0
0
0
0
0
0
0
0
0
0
0
0
0
0
0
0
0
0
0
0
0
0
0
0
0
0
0
0
0
0
0
0
0
0
0
0
0
0
0
0
0
0
0
0
0
0
0
0
0
0
0
0
0
0
0
0
0
0
0
0
0
0
0
0
0
0
0
0
0
0
0
0
0
0
0
0
0
0
0
0
0
0
0
0
0
0
0
0
0
0
0
0
0
0
0
0
0
0
0
0
0
0
0
0
0
0
0
0
0
0
0
0
0
0
0
0
0
0
0
0
0
0
0
0
0
0
0
0
0
0
0
0
0
0
0
0
0
0
0
0
0
0
0
0
0
0
0
0
0
0
0
0
0
0
0
0
0
0
0
0
0
0
0
0
0
0
0
0
0
0
0
0
0
0
0
0
0
0
0
0
0
0
0
0
0
0
0
0
0
0
0
0
0
0
0
0
0
0
0
0
0
0
0
0
0
0
0
0
0
0
0
0
0
0
0
0
0
0
0
0
0
0
0
0
0
0
0
0
0
0
0
0
0
0
0
0
0
0
0
0
0
0
0
0
0
0
0
8.3037775e+19
7.938365e+19
7.6635309e+19
7.4524252e+19
8.4784893e+19
7.9781399e+19
7.5968503e+19
7.3034155e+19
8.8895981e+19
8.301737e+19
7.849471e+19
7.4993581e+19
9.3864482e+19
8.7348495e+19
8.230996e+19
7.8394644e+19
7.286018e+19
7.1507428e+19
7.0369471e+19
6.9378544e+19
7.0747275e+19
6.8937722e+19
6.7481461e+19
6.6289732e+19
7.2262895e+19
7.0115219e+19
6.8412116e+19
6.7053299e+19
7.5335762e+19
7.293336e+19
7.1039058e+19
6.9544793e+19
6.848864e+19
6.767081e+19
6.6910158e+19
6.6204124e+19
6.5301272e+19
6.4476874e+19
6.3795791e+19
6.3253622e+19
6.5968715e+19
6.5112926e+19
6.4461318e+19
6.4007823e+19
6.8374612e+19
6.7478843e+19
6.6830134e+19
6.642106e+19
6.5561852e+19
6.5004585e+19
6.4567119e+19
6.4300542e+19
6.2861484e+19
6.2646357e+19
6.2652598e+19
6.2944703e+19
6.3763939e+19
6.375895e+19
6.4041299e+19
6.4681168e+19
6.6263061e+19
6.6386613e+19
6.6842587e+19
6.7704861e+19
6.4276657e+19
6.4594839e+19
6.539262e+19
6.686228e+19
6.3611477e+19
6.4771837e+19
6.6582486e+19
6.9247644e+19
6.5774367e+19
6.7447719e+19
6.9866191e+19
7.3242113e+19
6.9074297e+19
7.1084324e+19
7.3908428e+19
7.7770019e+19
0
0
0
0
0
0
0
0
0
0
0
0
0
0
0
0
0
0
0
0
0
0
0
0
0
0
0
0
0
0
0
0
0
0
0
0
0
0
0
0
0
0
0
0
0
0
0
0
0
0
0
0
0
0
0
0
0
0
0
0
0
0
0
0
0
0
0
0
0
0
0
0
0
0
0
0
0
0
0
0
0
0
0
0
0
0
0
0
0
0
0
0
0
0
0
0
0
0
0
0
0
0
0
0
0
0
0
0
0
0
0
0
0
0
0
0
0
0
0
0
0
0
0
0
0
0
0
0
0
0
0
0
0
0
0
0
0
0
0
0
0
0
0
0
0
0
0
0
0
0
0
0
0
0
0
0
0
0
0
0
0
0
0
0
0
0
0
0
0
0
0
0
0
0
0
0
0
0
0
0
0
0
0
0
0
0
0
0
0
0
0
0
0
0
0
0
0
0
0
0
0
0
0
0
0
0
0
0
0
0
0
0
0
0
0
0
0
0
0
0
0
0
0
0
0
0
0
0
0
0
0
0
0
0
0
0
0
0
0
0
9.9041309e+19
9.2014821e+19
8.6566743e+19
8.232397e+19
1.0414036e+20
9.6677616e+19
9.0882175e+19
8.6363075e+19
1.0903704e+20
1.0118638e+20
9.5083501e+19
9.0320663e+19
1.1368015e+20
1.0547674e+20
9.9094887e+19
9.4111241e+19
7.9005321e+19
7.6399811e+19
7.4350616e+19
7.2743263e+19
8.2825606e+19
8.0048536e+19
7.7867295e+19
7.6161627e+19
8.6590474e+19
8.3662101e+19
8.1363752e+19
7.9569798e+19
9.0206563e+19
8.7141054e+19
8.4736173e+19
8.286128e+19
7.1497051e+19
7.0558942e+19
6.989943e+19
6.9510036e+19
7.4846602e+19
7.3866243e+19
7.318921e+19
7.2806188e+19
7.8191413e+19
7.7169945e+19
7.6472418e+19
7.608883e+19
8.1423929e+19
8.0362989e+19
7.9644e+19
7.9256366e+19
6.9402192e+19
6.9607417e+19
7.0178745e+19
7.1193467e+19
7.2728736e+19
7.2989484e+19
7.3643647e+19
7.4771931e+19
7.6030962e+19
7.6332605e+19
7.7051162e+19
7.8270708e+19
7.921214e+19
7.9546274e+19
8.0318307e+19
8.1615567e+19
7.2757338e+19
7.5010493e+19
7.813543e+19
8.2367584e+19
7.6484979e+19
7.8929637e+19
8.2297415e+19
8.6835691e+19
8.0106673e+19
8.2712428e+19
8.6288196e+19
9.1092838e+19
8.3558074e+19
8.6305431e+19
9.0066137e+19
9.5109924e+19
0
0
0
0
0
0
0
0
0
0
0
0
0
0
0
0
0
0
0
0
0
0
0
0
0
0
0
0
0
0
0
0
0
0
0
0
0
0
0
0
0
0
0
0
0
0
0
0
0
0
0
0
0
0
0
0
0
0
0
0
0
0
0
0
0
0
0
0
0
0
0
0
0
0
0
0
0
0
0
0
0
0
0
0
0
0
0
0
0
0
0
0
0
0
0
0
0
0
0
0
0
0
0
0
0
0
0
0
0
0
0
0
0
0
0
0
0
0
0
0
0
0
0
0
0
0
0
0
0
0
0
0
0
0
0
0
0
0
0
0
0
0
0
0
0
0
0
0
0
0
0
0
0
0
0
0
0
0
0
0
0
0
0
0
0
0
0
0
0
0
0
0
0
0
0
0
0
0
0
0
0
0
0
0
0
0
0
0
0
0
0
0
0
0
0
0
0
0
0
0
0
0
0
0
0
0
0
0
0
0
0
0
0
0
0
0
0
0
0
0
0
0
0
0
0
0
0
0
0
0
0
0
0
0
0
0
0
0
0
0
1.1805239e+20
1.0952431e+20
1.0288586e+20
9.7699193e+19
1.2215224e+20
1.1332354e+20
1.0644745e+20
1.0107268e+20
1.2598563e+20
1.1687786e+20
1.0978098e+20
1.0423131e+20
1.2956204e+20
1.2019498e+20
1.1289275e+20
1.0718024e+20
9.3634051e+19
9.0442293e+19
8.7939093e+19
8.598914e+19
9.685877e+19
9.354984e+19
9.0955223e+19
8.8935269e+19
9.9878953e+19
9.6460861e+19
9.3780962e+19
9.1695581e+19
1.0269885e+20
9.9178924e+19
9.6419382e+19
9.4272827e+19
8.4496616e+19
8.3398096e+19
8.2657749e+19
8.226445e+19
8.7391027e+19
8.6256938e+19
8.5495903e+19
8.5096319e+19
9.010286e+19
8.8935258e+19
8.81545e+19
8.7748541e+19
9.2634704e+19
9.1435638e+19
9.0636262e+19
9.0224119e+19
8.2230539e+19
8.2592095e+19
8.3410697e+19
8.4776765e+19
8.5070807e+19
8.5456513e+19
8.6316941e+19
8.7745419e+19
8.7730271e+19
8.8137837e+19
8.9036541e+19
9.0522426e+19
9.0212351e+19
9.0640032e+19
9.157414e+19
9.311324e+19
8.6814664e+19
8.9689873e+19
9.3618683e+19
9.8881035e+19
8.9870387e+19
9.2862833e+19
9.6946337e+19
1.0241038e+20
9.2727737e+19
9.5828596e+19
1.0005538e+20
1.0570647e+20
9.5393114e+19
9.8594661e+19
1.0295458e+20
1.0877952e+20
0
0
0
0
0
0
0
0
0
0
0
0
0
0
0
0
0
0
0
0
0
0
0
0
0
0
0
0
0
0
0
0
0
0
0
0
0
0
0
0
0
0
0
0
0
0
0
0
0
0
0
0
0
0
0
0
0
0
0
0
0
0
0
0
0
0
0
0
0
0
0
0
0
0
0
0
0
0
0
0
0
0
0
0
0
0
0
0
0
0
0
0
0
0
0
0
0
0
0
0
0
0
0
0
0
0
0
0
0
0
0
0
0
0
0
0
0
0
0
0
0
0
0
0
0
0
0
0
0
0
0
0
0
0
0
0
0
0
0
0
0
0
0
0
0
0
0
0
0
0
0
0
0
0
0
0
0
0
0
0
0
0
0
0
0
0
0
0
0
0
0
0
0
0
0
0
0
0
0
0
0
0
0
0
0
0
0
0
0
0
0
0
0
0
0
0
0
0
0
0
0
0
0
0
0
0
0
0
0
0
0
0
0
0
0
0
0
0
0
0
0
0
0
0
0
0
0
0
0
0
0
0
0
0
0
0
0
0
0
0
1.3289256e+20
1.2328462e+20
1.157914e+20
1.0992727e+20
1.3598893e+20
1.2615738e+20
1.1848665e+20
1.1248144e+20
1.3886307e+20
1.2882414e+20
1.2098859e+20
1.1485223e+20
1.4152674e+20
1.3129573e+20
1.2330732e+20
1.1704921e+20
1.0532563e+20
1.0171069e+20
9.8876785e+19
9.6673064e+19
1.0776777e+20
1.0406426e+20
1.0116098e+20
9.8903897e+19
1.1003433e+20
1.0624834e+20
1.032804e+20
1.0097358e+20
1.1213445e+20
1.0827174e+20
1.0524364e+20
1.0289052e+20
9.4992482e+19
9.3763962e+19
9.2947124e+19
9.2529129e+19
9.7183669e+19
9.5927644e+19
9.5094503e+19
9.4671051e+19
9.9216388e+19
9.7934734e+19
9.7086424e+19
9.6657929e+19
1.0109893e+20
9.9793445e+19
9.8931056e+19
9.8497928e+19
9.2523348e+19
9.2969715e+19
9.3936757e+19
9.5525379e+19
9.4670866e+19
9.5134676e+19
9.6132439e+19
9.7767223e+19
9.6663016e+19
9.7143143e+19
9.8169585e+19
9.9847409e+19
9.8508e+19
9.9003395e+19
1.000566e+20
1.0177453e+20
9.7874644e+19
1.0116988e+20
1.0565364e+20
1.1164027e+20
1.0018112e+20
1.0356357e+20
1.0816256e+20
1.1429954e+20
1.0232151e+20
1.0578512e+20
1.1049125e+20
1.1676792e+20
1.0430467e+20
1.0784373e+20
1.1264936e+20
1.190557e+20
0
0
0
0
0
0
0
0
0
0
0
0
0
0
0
0
0
0
0
0
0
0
0
0
0
0
0
0
0
0
0
0
0
0
0
0
0
0
0
0
0
0
0
0
0
0
0
0
0
0
0
0
0
0
0
0
0
0
0
0
0
0
0
0
0
0
0
0
0
0
0
0
0
0
0
0
0
0
0
0
0
0
0
0
0
0
0
0
0
0
0
0
0
0
0
0
0
0
0
0
0
0
0
0
0
0
0
0
0
0
0
0
0
0
0
0
0
0
0
0
0
0
0
0
0
0
0
0
0
0
0
0
0
0
0
0
0
0
0
0
0
0
0
0
0
0
0
0
0
0
0
0
0
0
0
0
0
0
0
0
0
0
0
0
0
0
0
0
0
0
0
0
0
0
0
0
0
0
0
0
0
0
0
0
0
0
0
0
0
0
0
0
0
0
0
0
0
0
0
0
0
0
0
0
0
0
0
0
0
0
0
0
0
0
0
0
0
0
0
0
0
0
0
0
0
0
0
0
0
0
0
0
0
0
0
0
0
0
0
0
1.4399141e+20
1.3358273e+20
1.2545278e+20
1.1908179e+20
1.4626814e+20
1.3569537e+20
1.2743454e+20
1.2095908e+20
1.4836749e+20
1.3764343e+20
1.2926179e+20
1.2268981e+20
1.5029949e+20
1.3943621e+20
1.3094328e+20
1.2428229e+20
1.1407714e+20
1.101432e+20
1.070592e+20
1.0466305e+20
1.1587116e+20
1.1187117e+20
1.0873533e+20
1.0629926e+20
1.1752488e+20
1.1346377e+20
1.1027993e+20
1.0780691e+20
1.1904629e+20
1.1492874e+20
1.1170055e+20
1.0919337e+20
1.0283951e+20
1.0151189e+20
1.0063647e+20
1.001991e+20
1.0444608e+20
1.0309796e+20
1.0221049e+20
1.0176925e+20
1.0592629e+20
1.0455921e+20
1.0366062e+20
1.0321586e+20
1.0728741e+20
1.0590283e+20
1.04994e+20
1.0454604e+20
1.0021389e+20
1.0072356e+20
1.0180172e+20
1.0355698e+20
1.0178849e+20
1.0231149e+20
1.0341289e+20
1.0520284e+20
1.0323929e+20
1.0377472e+20
1.0489771e+20
1.0671983e+20
1.0457342e+20
1.0512039e+20
1.0626339e+20
1.081153e+20
1.061392e+20
1.0974831e+20
1.1464626e+20
1.2117276e+20
1.0783339e+20
1.1150745e+20
1.1649089e+20
1.231286e+20
1.0939516e+20
1.1312931e+20
1.1819178e+20
1.2493222e+20
1.1083201e+20
1.1462166e+20
1.1975706e+20
1.265922e+20
0
0
0
0
0
0
0
0
0
0
0
0
0
0
0
0
0
0
0
0
0
0
0
0
0
0
0
0
0
0
0
0
0
0
0
0
0
0
0
0
0
0
0
0
0
0
0
0
0
0
0
0
0
0
0
0
0
0
0
0
0
0
0
0
0
0
0
0
0
0
0
0
0
0
0
0
0
0
0
0
0
0
0
0
0
0
0
0
0
0
0
0
0
0
0
0
0
0
0
0
0
0
0
0
0
0
0
0
0
0
0
0
0
0
0
0
0
0
0
0
0
0
0
0
0
0
0
0
0
0
0
0
0
0
0
0
0
0
0
0
0
0
0
0
0
0
0
0
0
0
0
0
0
0
0
0
0
0
0
0
0
0
0
0
0
0
0
0
0
0
0
0
0
0
0
0
0
0
0
0
0
0
0
0
0
0
0
0
0
0
0
0
0
0
0
0
0
0
0
0
0
0
0
0
0
0
0
0
0
0
0
0
0
0
0
0
0
0
0
0
0
0
0
0
0
0
0
0
0
0
0
0
0
0
0
0
0
0
0
0
1.5207361e+20
1.4108249e+20
1.3248726e+20
1.2574437e+20
1.5369875e+20
1.4259051e+20
1.3390148e+20
1.2708341e+20
1.551832e+20
1.4396798e+20
1.3519317e+20
1.2830632e+20
1.5653468e+20
1.4522206e+20
1.3636908e+20
1.294195e+20
1.2044293e+20
1.1627337e+20
1.130043e+20
1.1046564e+20
1.2172187e+20
1.1750451e+20
1.1419786e+20
1.1163024e+20
1.2288973e+20
1.1862857e+20
1.1528746e+20
1.1269329e+20
1.2395266e+20
1.196515e+20
1.1627891e+20
1.1366048e+20
1.0853631e+20
1.0713561e+20
1.0621737e+20
1.0576651e+20
1.0967943e+20
1.0826392e+20
1.0733707e+20
1.0688356e+20
1.1072279e+20
1.0929372e+20
1.0835898e+20
1.0790309e+20
1.1167199e+20
1.1023054e+20
1.0928861e+20
1.0883057e+20
1.0579757e+20
1.0635525e+20
1.0751676e+20
1.0939617e+20
1.0691806e+20
1.0748565e+20
1.0866422e+20
1.1056894e+20
1.0794078e+20
1.0851748e+20
1.0971174e+20
1.116397e+20
1.088712e+20
1.0945626e+20
1.1066488e+20
1.126141e+20
1.1215105e+20
1.1599183e+20
1.2119434e+20
1.2811659e+20
1.1335893e+20
1.1724669e+20
1.2251083e+20
1.29513e+20
1.1446188e+20
1.1839268e+20
1.2371323e+20
1.3078851e+20
1.1546569e+20
1.1943577e+20
1.2480778e+20
1.3194972e+20
0
0
0
0
0
0
0
0
0
0
0
0
0
0
0
0
0
0
0
0
0
0
0
0
0
0
0
0
0
0
0
0
0
0
0
0
0
0
0
0
0
0
0
0
0
0
0
0
0
0
0
0
0
0
0
0
0
0
0
0
0
0
0
0
0
0
0
0
0
0
0
0
0
0
0
0
0
0
0
0
0
0
0
0
0
0
0
0
0
0
0
0
0
0
0
0
0
0
0
0
0
0
0
0
0
0
0
0
0
0
0
0
0
0
0
0
0
0
0
0
0
0
0
0
0
0
0
0
0
0
0
0
0
0
0
0
0
0
0
0
0
0
0
0
0
0
0
0
0
0
0
0
0
0
0
0
0
0
0
0
0
0
0
0
0
0
0
0
0
0
0
0
0
0
0
0
0
0
0
0
0
0
0
0
0
0
0
0
0
0
0
0
0
0
0
0
0
0
0
0
0
0
0
0
0
0
0
0
0
0
0
0
0
0
0
0
0
0
0
0
0
0
0
0
0
0
0
0
0
0
0
0
0
0
0
0
0
0
0
0
1.5776033e+20
1.4635936e+20
1.3743543e+20
1.3042884e+20
1.588667e+20
1.4738597e+20
1.3839793e+20
1.3133981e+20
1.5985977e+20
1.4830745e+20
1.3926182e+20
1.3215736e+20
1.6074498e+20
1.4912884e+20
1.4003182e+20
1.3288601e+20
1.2491633e+20
1.2057879e+20
1.1717755e+20
1.1453705e+20
1.2578597e+20
1.2141549e+20
1.1798832e+20
1.1532782e+20
1.2656635e+20
1.2216622e+20
1.1871569e+20
1.1603719e+20
1.2726178e+20
1.2283516e+20
1.1936375e+20
1.1666914e+20
1.1253219e+20
1.1107947e+20
1.1013101e+20
1.0967103e+20
1.1330813e+20
1.1184521e+20
1.1089086e+20
1.1042914e+20
1.1400414e+20
1.1253205e+20
1.1157239e+20
1.1110911e+20
1.1462416e+20
1.1314386e+20
1.1217947e+20
1.1171482e+20
1.0971438e+20
1.1030708e+20
1.1152879e+20
1.1349736e+20
1.1047496e+20
1.110746e+20
1.1230818e+20
1.1429429e+20
1.1115718e+20
1.1176309e+20
1.1300738e+20
1.1500929e+20
1.117649e+20
1.1237642e+20
1.1363031e+20
1.1564635e+20
1.1637571e+20
1.2038151e+20
1.2580028e+20
1.3300273e+20
1.1719687e+20
1.21235e+20
1.2669604e+20
1.3395319e+20
1.1793368e+20
1.2200088e+20
1.2749994e+20
1.3480623e+20
1.1859023e+20
1.226834e+20
1.2821638e+20
1.3556652e+20
0
0
0
0
0
0
0
0
0
0
0
0
0
0
0
0
0
0
0
0
0
0
0
0
0
0
0
0
0
0
0
0
0
0
0
0
0
0
0
0
0
0
0
0
0
0
0
0
0
0
0
0
0
0
0
0
0
0
0
0
0
0
0
0
0
0
0
0
0
0
0
0
0
0
0
0
0
0
0
0
0
0
0
0
0
0
0
0
0
0
0
0
0
0
0
0
0
0
0
0
0
0
0
0
0
0
0
0
0
0
0
0
0
0
0
0
0
0
0
0
0
0
0
0
0
0
0
0
0
0
0
0
0
0
0
0
0
0
0
0
0
0
0
0
0
0
0
0
0
0
0
0
0
0
0
0
0
0
0
0
0
0
0
0
0
0
0
0
0
0
0
0
0
0
0
0
0
0
0
0
0
0
0
0
0
0
0
0
0
0
0
0
0
0
0
0
0
0
0
0
0
0
0
0
0
0
0
0
0
0
0
0
0
0
0
0
0
0
0
0
0
0
0
0
0
0
0
0
0
0
0
0
0
0
0
0
0
0
0
0
1.6152723e+20
1.4985468e+20
1.4071223e+20
1.335298e+20
1.6221087e+20
1.5048903e+20
1.4130684e+20
1.3409237e+20
1.6279976e+20
1.5103546e+20
1.4181901e+20
1.3457691e+20
1.6329725e+20
1.5149708e+20
1.4225166e+20
1.3498618e+20
1.2787617e+20
1.2342608e+20
1.1993616e+20
1.1722728e+20
1.2841298e+20
1.2394233e+20
1.204362e+20
1.1771481e+20
1.2887529e+20
1.2438688e+20
1.2086673e+20
1.1813453e+20
1.2926575e+20
1.2476229e+20
1.2123028e+20
1.1848892e+20
1.1517172e+20
1.1368415e+20
1.1271556e+20
1.122497e+20
1.1564997e+20
1.1415602e+20
1.1318377e+20
1.1271685e+20
1.1606168e+20
1.1456224e+20
1.1358681e+20
1.1311899e+20
1.1640928e+20
1.1490517e+20
1.1392707e+20
1.1345848e+20
1.1230159e+20
1.129181e+20
1.1418049e+20
1.1620906e+20
1.1277032e+20
1.1339122e+20
1.1466107e+20
1.1670062e+20
1.1317384e+20
1.1379853e+20
1.1507483e+20
1.1712388e+20
1.1351451e+20
1.1414242e+20
1.154242e+20
1.1748128e+20
1.1917021e+20
1.2328637e+20
1.2884938e+20
1.362383e+20
1.1967691e+20
1.238132e+20
1.2940248e+20
1.3682532e+20
1.2011322e+20
1.2426689e+20
1.2987883e+20
1.3733092e+20
1.2048169e+20
1.2465006e+20
1.3028117e+20
1.3775798e+20
0
0
0
0
0
0
0
0
0
0
0
0
0
0
0
0
0
0
0
0
0
0
0
0
0
0
0
0
0
0
0
0
0
0
0
0
0
0
0
0
0
0
0
0
0
0
0
0
0
0
0
0
0
0
0
0
0
0
0
0
0
0
0
0
0
0
0
0
0
0
0
0
0
0
0
0
0
0
0
0
0
0
0
0
0
0
0
0
0
0
0
0
0
0
0
0
0
0
0
0
0
0
0
0
0
0
0
0
0
0
0
0
0
0
0
0
0
0
0
0
0
0
0
0
0
0
0
0
0
0
0
0
0
0
0
0
0
0
0
0
0
0
0
0
0
0
0
0
0
0
0
0
0
0
0
0
0
0
0
0
0
0
0
0
0
0
0
0
0
0
0
0
0
0
0
0
0
0
0
0
0
0
0
0
0
0
0
0
0
0
0
0
0
0
0
0
0
0
0
0
0
0
0
0
0
0
0
0
0
0
0
0
0
0
0
0
0
0
0
0
0
0
0
0
0
0
0
0
0
0
0
0
0
0
0
0
0
0
0
0
1.6370618e+20
1.5187654e+20
1.4260729e+20
1.3532256e+20
1.6402894e+20
1.5217604e+20
1.4288797e+20
1.3558802e+20
1.6426742e+20
1.5239735e+20
1.4309536e+20
1.3578413e+20
1.6442307e+20
1.5254181e+20
1.4323072e+20
1.359121e+20
1.2958663e+20
1.2507077e+20
1.2152897e+20
1.1878006e+20
1.2983982e+20
1.2531414e+20
1.2176458e+20
1.1900968e+20
1.3002683e+20
1.2549386e+20
1.2193854e+20
1.1917918e+20
1.301488e+20
1.2561103e+20
1.2205191e+20
1.1928961e+20
1.1669481e+20
1.1518686e+20
1.1420655e+20
1.1373734e+20
1.1691999e+20
1.15409e+20
1.1442694e+20
1.1395724e+20
1.1708619e+20
1.1557294e+20
1.1458959e+20
1.1411953e+20
1.1719445e+20
1.156797e+20
1.1469551e+20
1.1422523e+20
1.1379435e+20
1.1442492e+20
1.1571122e+20
1.1777493e+20
1.1401503e+20
1.1464772e+20
1.1593761e+20
1.1800659e+20
1.1417791e+20
1.1481219e+20
1.1610475e+20
1.1817764e+20
1.14284e+20
1.1491934e+20
1.1621367e+20
1.1828915e+20
1.2078447e+20
1.2496495e+20
1.3061184e+20
1.3810899e+20
1.2102334e+20
1.2521341e+20
1.3087277e+20
1.38386e+20
1.2119976e+20
1.2539693e+20
1.3106554e+20
1.3859067e+20
1.2131481e+20
1.2551665e+20
1.3119133e+20
1.3872424e+20
0
0
0
0
0
0
0
0
0
0
0
0
0
0
0
0
0
0
0
0
0
0
0
0
0
0
0
0
0
0
0
0
0
0
0
0
0
0
0
0
0
0
0
0
0
0
0
0
0
0
0
0
0
0
0
0
0
0
0
0
0
0
0
0
0
0
0
0
0
0
0
0
0
0
0
0
0
0
0
0
0
0
0
0
0
0
0
0
0
0
0
0
0
0
0
0
0
0
0
0
0
0
0
0
0
0
0
0
0
0
0
0
0
0
0
0
0
0
0
0
0
0
0
0
0
0
0
0
0
0
0
0
0
0
0
0
0
0
0
0
0
0
0
0
0
0
0
0
0
0
0
0
0
0
0
0
0
0
0
0
0
0
0
0
0
0
0
0
0
0
0
0
0
0
0
0
0
0
0
0
0
0
0
0
0
0
0
0
0
0
0
0
0
0
0
0
0
0
0
0
0
0
0
0
0
0
0
0
0
0
0
0
0
0
0
0
0
0
0
0
0
0
0
0
0
0
0
0
0
0
0
0
0
0
0
0
0
0
0
0
1.6449687e+20
1.5261033e+20
1.432949e+20
1.3597272e+20
1.6448935e+20
1.5260342e+20
1.4328838e+20
1.3596645e+20
1.6440061e+20
1.5252113e+20
1.4321122e+20
1.3589336e+20
1.6423026e+20
1.5236316e+20
1.4306311e+20
1.3575314e+20
1.3020653e+20
1.2566641e+20
1.2210543e+20
1.1934169e+20
1.3020042e+20
1.2566042e+20
1.220995e+20
1.1933581e+20
1.3013056e+20
1.255931e+20
1.2203417e+20
1.1927202e+20
1.2999664e+20
1.2546418e+20
1.2190918e+20
1.1915006e+20
1.1724546e+20
1.1572999e+20
1.1474539e+20
1.1427501e+20
1.1723962e+20
1.1572418e+20
1.1473961e+20
1.1426927e+20
1.1717697e+20
1.1566233e+20
1.1467823e+20
1.1420804e+20
1.1705726e+20
1.1554417e+20
1.1456098e+20
1.1409108e+20
1.14334e+20
1.1496987e+20
1.1626508e+20
1.1834184e+20
1.1432828e+20
1.1496417e+20
1.1625938e+20
1.1833611e+20
1.142669e+20
1.1490228e+20
1.1619662e+20
1.1827202e+20
1.141496e+20
1.1478396e+20
1.1607653e+20
1.181493e+20
1.2136923e+20
1.2557334e+20
1.3125094e+20
1.3878757e+20
1.2136343e+20
1.2556742e+20
1.3124481e+20
1.3878114e+20
1.2129748e+20
1.2549896e+20
1.3117303e+20
1.3870501e+20
1.211711e+20
1.2536767e+20
1.3103528e+20
1.3855889e+20
0
0
0
0
0
0
0
0
0
0
0
0
0
0
0
0
0
0
0
0
0
0
0
0
0
0
0
0
0
0
0
0
0
0
0
0
0
0
0
0
0
0
0
0
0
0
0
0
0
0
0
0
0
0
0
0
0
0
0
0
0
0
0
0
0
0
0
0
0
0
0
0
0
0
0
0
0
0
0
0
0
0
0
0
0
0
0
0
0
0
0
0
0
0
0
0
0
0
0
0
0
0
0
0
0
0
0
0
0
0
0
0
0
0
0
0
0
0
0
0
0
0
0
0
0
0
0
0
0
0
0
0
0
0
0
0
0
0
0
0
0
0
0
0
0
0
0
0
0
0
0
0
0
0
0
0
0
0
0
0
0
0
0
0
0
0
0
0
0
0
0
0
0
0
0
0
0
0
0
0
0
0
0
0
0
0
0
0
0
0
0
0
0
0
0
0
0
0
0
0
0
0
0
0
0
0
0
0
0
0
0
0
0
0
0
0
0
0
0
0
0
0
0
0
0
0
0
0
0
0
0
0
0
0
0
0
0
0
0
0
1.6397752e+20
1.5212873e+20
1.4284336e+20
1.3554514e+20
1.6364113e+20
1.518167e+20
1.4255085e+20
1.352683e+20
1.6321939e+20
1.5142549e+20
1.4218413e+20
1.3492122e+20
1.6271014e+20
1.5095309e+20
1.4174129e+20
1.3450211e+20
1.2979802e+20
1.2527304e+20
1.2172393e+20
1.1896933e+20
1.2953372e+20
1.2501871e+20
1.2147745e+20
1.1872892e+20
1.2920237e+20
1.246999e+20
1.211685e+20
1.1842756e+20
1.2880227e+20
1.2431493e+20
1.2079544e+20
1.1806369e+20
1.168799e+20
1.1536913e+20
1.143873e+20
1.1391782e+20
1.1664398e+20
1.1513631e+20
1.1415628e+20
1.1368736e+20
1.1634827e+20
1.1484449e+20
1.1386673e+20
1.133985e+20
1.1599121e+20
1.1449214e+20
1.1351711e+20
1.1304971e+20
1.139758e+20
1.1460863e+20
1.1589854e+20
1.1796736e+20
1.1374463e+20
1.1437539e+20
1.1566174e+20
1.1772528e+20
1.1345486e+20
1.1408302e+20
1.153649e+20
1.1742181e+20
1.1310498e+20
1.1373e+20
1.1500647e+20
1.1705537e+20
1.2098368e+20
1.2517293e+20
1.3083093e+20
1.3834207e+20
1.2073429e+20
1.2491376e+20
1.3055895e+20
1.3805348e+20
1.2042164e+20
1.2458884e+20
1.3021795e+20
1.3769165e+20
1.2004411e+20
1.2419648e+20
1.2980618e+20
1.3725473e+20
0
0
0
0
0
0
0
0
0
0
0
0
0
0
0
0
0
0
0
0
0
0
0
0
0
0
0
0
0
0
0
0
0
0
0
0
0
0
0
0
0
0
0
0
0
0
0
0
0
0
0
0
0
0
0
0
0
0
0
0
0
0
0
0
0
0
0
0
0
0
0
0
0
0
0
0
0
0
0
0
0
0
0
0
0
0
0
0
0
0
0
0
0
0
0
0
0
0
0
0
0
0
0
0
0
0
0
0
0
0
0
0
0
0
0
0
0
0
0
0
0
0
0
0
0
0
0
0
0
0
0
0
0
0
0
0
0
0
0
0
0
0
0
0
0
0
0
0
0
0
0
0
0
0
0
0
0
0
0
0
0
0
0
0
0
0
0
0
0
0
0
0
0
0
0
0
0
0
0
0
0
0
0
0
0
0
0
0
0
0
0
0
0
0
0
0
0
0
0
0
0
0
0
0
0
0
0
0
0
0
0
0
0
0
0
0
0
0
0
0
0
0
0
0
0
0
0
0
0
0
0
0
0
0
0
0
0
0
0
0
1.6211079e+20
1.503971e+20
1.4122009e+20
1.3400882e+20
1.6141826e+20
1.4975466e+20
1.4061783e+20
1.334388e+20
1.6062903e+20
1.4902251e+20
1.3993144e+20
1.3278912e+20
1.5973908e+20
1.4819691e+20
1.3915741e+20
1.3205645e+20
1.2833134e+20
1.238618e+20
1.2035633e+20
1.1763539e+20
1.2778714e+20
1.2333815e+20
1.1984886e+20
1.1714039e+20
1.2716685e+20
1.2274125e+20
1.1927038e+20
1.165761e+20
1.2646728e+20
1.2206802e+20
1.1861788e+20
1.1593958e+20
1.1557093e+20
1.1407738e+20
1.1310557e+20
1.1263915e+20
1.1508519e+20
1.1359802e+20
1.1262993e+20
1.1216464e+20
1.1453144e+20
1.1305154e+20
1.1208767e+20
1.1162368e+20
1.1390677e+20
1.1243505e+20
1.1147595e+20
1.1101341e+20
1.1269313e+20
1.1331445e+20
1.1458456e+20
1.1662403e+20
1.1221713e+20
1.1283419e+20
1.1409695e+20
1.1612555e+20
1.1167448e+20
1.1228669e+20
1.1354109e+20
1.1555731e+20
1.1106232e+20
1.1166908e+20
1.1291408e+20
1.1491636e+20
1.1959972e+20
1.2373466e+20
1.2932151e+20
1.3674046e+20
1.1908617e+20
1.2320096e+20
1.2876143e+20
1.3614619e+20
1.1850078e+20
1.2259264e+20
1.2812305e+20
1.3546888e+20
1.1784052e+20
1.2190656e+20
1.2740311e+20
1.3470505e+20
0
0
0
0
0
0
0
0
0
0
0
0
0
0
0
0
0
0
0
0
0
0
0
0
0
0
0
0
0
0
0
0
0
0
0
0
0
0
0
0
0
0
0
0
0
0
0
0
0
0
0
0
0
0
0
0
0
0
0
0
0
0
0
0
0
0
0
0
0
0
0
0
0
0
0
0
0
0
0
0
0
0
0
0
0
0
0
0
0
0
0
0
0
0
0
0
0
0
0
0
0
0
0
0
0
0
0
0
0
0
0
0
0
0
0
0
0
0
0
0
0
0
0
0
0
0
0
0
0
0
0
0
0
0
0
0
0
0
0
0
0
0
0
0
0
0
0
0
0
0
0
0
0
0
0
0
0
0
0
0
0
0
0
0
0
0
0
0
0
0
0
0
0
0
0
0
0
0
0
0
0
0
0
0
0
0
0
0
0
0
0
0
0
0
0
0
0
0
0
0
0
0
0
0
0
0
0
0
0
0
0
0
0
0
0
0
0
0
0
0
0
0
0
0
0
0
0
0
0
0
0
0
0
0
0
0
0
0
0
0
1.5874395e+20
1.4727371e+20
1.3829185e+20
1.3123708e+20
1.5763866e+20
1.4624831e+20
1.3733041e+20
1.3032688e+20
1.5641778e+20
1.4511565e+20
1.3626834e+20
1.2932133e+20
1.5507537e+20
1.4387022e+20
1.3510045e+20
1.2821549e+20
1.2568486e+20
1.21315e+20
1.1788798e+20
1.1522751e+20
1.2481563e+20
1.2047836e+20
1.1707697e+20
1.1443624e+20
1.2385525e+20
1.1955388e+20
1.1618071e+20
1.1356173e+20
1.2279896e+20
1.1853697e+20
1.1519475e+20
1.1259961e+20
1.1320793e+20
1.1174534e+20
1.1079156e+20
1.1033065e+20
1.1243132e+20
1.1097883e+20
1.1003095e+20
1.0957187e+20
1.1157296e+20
1.1013161e+20
1.0919024e+20
1.0873318e+20
1.1062852e+20
1.0919939e+20
1.0826516e+20
1.0781032e+20
1.1037746e+20
1.1097814e+20
1.1221267e+20
1.141994e+20
1.0961636e+20
1.1021033e+20
1.1143326e+20
1.1340277e+20
1.0877513e+20
1.0936172e+20
1.1057188e+20
1.1252242e+20
1.0784952e+20
1.0842803e+20
1.0962422e+20
1.1155397e+20
1.1710201e+20
1.2113921e+20
1.2659795e+20
1.3385085e+20
1.1628148e+20
1.202867e+20
1.2570349e+20
1.3290196e+20
1.1537481e+20
1.1934477e+20
1.2471527e+20
1.3185369e+20
1.1437748e+20
1.1830876e+20
1.2362843e+20
1.3070087e+20
0
0
0
0
0
0
0
0
0
0
0
0
0
0
0
0
0
0
0
0
0
0
0
0
0
0
0
0
0
0
0
0
0
0
0
0
0
0
0
0
0
0
0
0
0
0
0
0
0
0
0
0
0
0
0
0
0
0
0
0
0
0
0
0
0
0
0
0
0
0
0
0
0
0
0
0
0
0
0
0
0
0
0
0
0
0
0
0
0
0
0
0
0
0
0
0
0
0
0
0
0
0
0
0
0
0
0
0
0
0
0
0
0
0
0
0
0
0
0
0
0
0
0
0
0
0
0
0
0
0
0
0
0
0
0
0
0
0
0
0
0
0
0
0
0
0
0
0
0
0
0
0
0
0
0
0
0
0
0
0
0
0
0
0
0
0
0
0
0
0
0
0
0
0
0
0
0
0
0
0
0
0
0
0
0
0
0
0
0
0
0
0
0
0
0
0
0
0
0
0
0
0
0
0
0
0
0
0
0
0
0
0
0
0
0
0
0
0
0
0
0
0
0
0
0
0
0
0
0
0
0
0
0
0
0
0
0
0
0
0
1.5360501e+20
1.4250607e+20
1.3382115e+20
1.2700402e+20
1.5199981e+20
1.4101679e+20
1.324244e+20
1.2568119e+20
1.5025243e+20
1.3939555e+20
1.3090376e+20
1.2424086e+20
1.4835507e+20
1.3763511e+20
1.2925242e+20
1.2267652e+20
1.2164165e+20
1.1742265e+20
1.1411421e+20
1.1154509e+20
1.2037778e+20
1.1620557e+20
1.1293388e+20
1.1039306e+20
1.1900145e+20
1.1488001e+20
1.1164817e+20
1.0913801e+20
1.1750639e+20
1.1343987e+20
1.1025111e+20
1.077741e+20
1.0959332e+20
1.0817753e+20
1.072511e+20
1.0679871e+20
1.0846229e+20
1.07061e+20
1.0614307e+20
1.0569336e+20
1.0723001e+20
1.0584445e+20
1.0493575e+20
1.0448896e+20
1.058907e+20
1.0452216e+20
1.0362343e+20
1.0317982e+20
1.0683491e+20
1.0740463e+20
1.0858557e+20
1.1049264e+20
1.0572633e+20
1.0628651e+20
1.0745089e+20
1.0933327e+20
1.0451844e+20
1.050683e+20
1.0621473e+20
1.0807036e+20
1.0320555e+20
1.0374427e+20
1.0487131e+20
1.06698e+20
1.1328461e+20
1.1717359e+20
1.2243769e+20
1.2943794e+20
1.1209092e+20
1.1593384e+20
1.2113736e+20
1.2805886e+20
1.1079075e+20
1.1458363e+20
1.1972131e+20
1.2655719e+20
1.0937806e+20
1.1311673e+20
1.1818303e+20
1.2492603e+20
0
0
0
0
0
0
0
0
0
0
0
0
0
0
0
0
0
0
0
0
0
0
0
0
0
0
0
0
0
0
0
0
0
0
0
0
0
0
0
0
0
0
0
0
0
0
0
0
0
0
0
0
0
0
0
0
0
0
0
0
0
0
0
0
0
0
0
0
0
0
0
0
0
0
0
0
0
0
0
0
0
0
0
0
0
0
0
0
0
0
0
0
0
0
0
0
0
0
0
0
0
0
0
0
0
0
0
0
0
0
0
0
0
0
0
0
0
0
0
0
0
0
0
0
0
0
0
0
0
0
0
0
0
0
0
0
0
0
0
0
0
0
0
0
0
0
0
0
0
0
0
0
0
0
0
0
0
0
0
0
0
0
0
0
0
0
0
0
0
0
0
0
0
0
0
0
0
0
0
0
0
0
0
0
0
0
0
0
0
0
0
0
0
0
0
0
0
0
0
0
0
0
0
0
0
0
0
0
0
0
0
0
0
0
0
0
0
0
0
0
0
0
0
0
0
0
0
0
0
0
0
0
0
0
0
0
0
0
0
0
1.4629953e+20
1.3572785e+20
1.2746318e+20
1.209813e+20
1.4407725e+20
1.3366579e+20
1.2552851e+20
1.1914802e+20
1.4167936e+20
1.314407e+20
1.2344062e+20
1.1716921e+20
1.3909679e+20
1.2904409e+20
1.2119151e+20
1.150372e+20
1.1588599e+20
1.1187872e+20
1.0873642e+20
1.0629514e+20
1.141333e+20
1.101898e+20
1.0709747e+20
1.0469461e+20
1.1224111e+20
1.0836609e+20
1.0532737e+20
1.029657e+20
1.1020198e+20
1.0640032e+20
1.0341897e+20
1.0110134e+20
1.0443825e+20
1.0308804e+20
1.0220007e+20
1.0175989e+20
1.0286622e+20
1.015357e+20
1.006593e+20
1.0022282e+20
1.0116784e+20
9.9858425e+19
9.8994419e+19
9.8561887e+19
9.933612e+19
9.8049236e+19
9.7198442e+19
9.6770094e+19
1.017816e+20
1.0230832e+20
1.0341446e+20
1.0520991e+20
1.0024021e+20
1.0075402e+20
1.0183765e+20
1.0359945e+20
9.8574622e+19
9.907457e+19
1.0013401e+20
1.0185961e+20
9.6777806e+19
9.7262851e+19
9.8296305e+19
9.9983018e+19
1.078464e+20
1.1152648e+20
1.1651557e+20
1.2315804e+20
1.0618897e+20
1.0980584e+20
1.1471157e+20
1.2124544e+20
1.0439858e+20
1.0794736e+20
1.1276325e+20
1.1918e+20
1.0246766e+20
1.059432e+20
1.1066241e+20
1.1695303e+20
0
0
0
0
0
0
0
0
0
0
0
0
0
0
0
0
0
0
0
0
0
0
0
0
0
0
0
0
0
0
0
0
0
0
0
0
0
0
0
0
0
0
0
0
0
0
0
0
0
0
0
0
0
0
0
0
0
0
0
0
0
0
0
0
0
0
0
0
0
0
0
0
0
0
0
0
0
0
0
0
0
0
0
0
0
0
0
0
0
0
0
0
0
0
0
0
0
0
0
0
0
0
0
0
0
0
0
0
0
0
0
0
0
0
0
0
0
0
0
0
0
0
0
0
0
0
0
0
0
0
0
0
0
0
0
0
0
0
0
0
0
0
0
0
0
0
0
0
0
0
0
0
0
0
0
0
0
0
0
0
0
0
0
0
0
0
0
0
0
0
0
0
0
0
0
0
0
0
0
0
0
0
0
0
0
0
0
0
0
0
0
0
0
0
0
0
0
0
0
0
0
0
0
0
0
0
0
0
0
0
0
0
0
0
0
0
0
0
0
0
0
0
0
0
0
0
0
0
0
0
0
0
0
0
0
0
0
0
0
0
1.3632039e+20
1.2646744e+20
1.1877305e+20
1.1274419e+20
1.3334107e+20
1.2370222e+20
1.1617716e+20
1.1028236e+20
1.3015e+20
1.2074016e+20
1.1339593e+20
1.0764406e+20
1.2673896e+20
1.1757349e+20
1.1042187e+20
1.0482197e+20
1.0800834e+20
1.0428505e+20
1.0136494e+20
9.9094275e+19
1.0565256e+20
1.0201281e+20
9.9157866e+19
9.693711e+19
1.0312713e+20
9.9576135e+19
9.6790328e+19
9.4622417e+19
1.0042481e+20
9.6967815e+19
9.4255063e+19
9.2142858e+19
9.7363815e+19
9.61009e+19
9.5264125e+19
9.4840157e+19
9.5243535e+19
9.4006002e+19
9.3184007e+19
9.2764548e+19
9.296781e+19
9.1757006e+19
9.0950464e+19
9.0535534e+19
9.05292e+19
8.9346343e+19
8.8555781e+19
8.8145233e+19
9.4842409e+19
9.5311427e+19
9.631698e+19
9.7961948e+19
9.2760815e+19
9.3212565e+19
9.4188148e+19
9.5788317e+19
9.0525162e+19
9.0958242e+19
9.1901595e+19
9.3453673e+19
8.8127376e+19
8.8540169e+19
8.9448782e+19
9.0949181e+19
1.0038824e+20
1.0378511e+20
1.0840039e+20
1.1455539e+20
9.8152002e+19
1.0146443e+20
1.0596813e+20
1.1197742e+20
9.5750189e+19
9.8972041e+19
1.0335601e+20
1.0920893e+20
9.3173614e+19
9.6298307e+19
1.0055387e+20
1.0623908e+20
0
0
0
0
0
0
0
0
0
0
0
0
0
0
0
0
0
0
0
0
0
0
0
0
0
0
0
0
0
0
0
0
0
0
0
0
0
0
0
0
0
0
0
0
0
0
0
0
0
0
0
0
0
0
0
0
0
0
0
0
0
0
0
0
0
0
0
0
0
0
0
0
0
0
0
0
0
0
0
0
0
0
0
0
0
0
0
0
0
0
0
0
0
0
0
0
0
0
0
0
0
0
0
0
0
0
0
0
0
0
0
0
0
0
0
0
0
0
0
0
0
0
0
0
0
0
0
0
0
0
0
0
0
0
0
0
0
0
0
0
0
0
0
0
0
0
0
0
0
0
0
0
0
0
0
0
0
0
0
0
0
0
0
0
0
0
0
0
0
0
0
0
0
0
0
0
0
0
0
0
0
0
0
0
0
0
0
0
0
0
0
0
0
0
0
0
0
0
0
0
0
0
0
0
0
0
0
0
0
0
0
0
0
0
0
0
0
0
0
0
0
0
0
0
0
0
0
0
0
0
0
0
0
0
0
0
0
0
0
0
1.231006e+20
1.1419522e+20
1.072482e+20
1.0180938e+20
1.1922904e+20
1.1059966e+20
1.0386926e+20
9.8600581e+19
1.151204e+20
1.0678293e+20
1.0028105e+20
9.5191308e+19
1.1077372e+20
1.0274375e+20
9.6481868e+19
9.1579395e+19
9.7538896e+19
9.4181056e+19
9.1545154e+19
8.9491351e+19
9.4463514e+19
9.1209789e+19
8.865428e+19
8.6661286e+19
9.1194089e+19
8.8049057e+19
8.5577059e+19
8.3646823e+19
8.7727906e+19
8.4695541e+19
8.2309522e+19
8.0443298e+19
8.7920428e+19
8.6766523e+19
8.5992231e+19
8.5585664e+19
8.5134569e+19
8.4010279e+19
8.3252188e+19
8.284882e+19
8.2165292e+19
8.1070765e+19
8.0328263e+19
7.9926746e+19
7.9007202e+19
7.7941817e+19
7.7213495e+19
7.6811648e+19
8.5559199e+19
8.5949787e+19
8.682081e+19
8.8265561e+19
8.2812222e+19
8.3178256e+19
8.4008378e+19
8.5393004e+19
7.9877901e+19
8.0216412e+19
8.1001669e+19
8.2320993e+19
7.6747573e+19
7.7054692e+19
7.7790172e+19
7.9038019e+19
9.0412556e+19
9.3432995e+19
9.7550851e+19
1.0305623e+20
8.7456635e+19
9.0365073e+19
9.4335161e+19
9.9647698e+19
8.4294576e+19
8.7082422e+19
9.0893729e+19
9.5999308e+19
8.091381e+19
8.3571335e+19
8.7211595e+19
9.2094702e+19
0
0
0
0
0
0
0
0
0
0
0
0
0
0
0
0
0
0
0
0
0
0
0
0
0
0
0
0
0
0
0
0
0
0
0
0
0
0
0
0
0
0
0
0
0
0
0
0
0
0
0
0
0
0
0
0
0
0
0
0
0
0
0
0
0
0
0
0
0
0
0
0
0
0
0
0
0
0
0
0
0
0
0
0
0
0
0
0
0
0
0
0
0
0
0
0
0
0
0
0
0
0
0
0
0
0
0
0
0
0
0
0
0
0
0
0
0
0
0
0
0
0
0
0
0
0
0
0
0
0
0
0
0
0
0
0
0
0
0
0
0
0
0
0
0
0
0
0
0
0
0
0
0
0
0
0
0
0
0
0
0
0
0
0
0
0
0
0
0
0
0
0
0
0
0
0
0
0
0
0
0