/*--------------------------------*- C++ -*----------------------------------*\
| =========                 |                                                 |
| \\      /  F ield         | OpenFOAM: The Open Source CFD Toolbox           |
|  \\    /   O peration     | Version:  1.4.1-dev                             |
|   \\  /    A nd           | Web:      http://www.openfoam.org               |
|    \\/     M anipulation  |                                                 |
\*---------------------------------------------------------------------------*/

FoamFile
{
    version 2.0;
    format ascii;

    root "/home/cliffoi/OpenFOAM/cliffoi-1.4.1-dev/run/diffusionFoam";
    case "oecd_simplified_2G";
    instance "0";
    local "";

    class volScalarField;
    object _157Gd;
}

// * * * * * * * * * * * * * * * * * * * * * * * * * * * * * * * * * * * * * //

dimensions      [0 -3 0 0 0 0 0];

internalField   nonuniform List<scalar> 
9280
(
0
0
0
0
0
0
0
0
0
0
0
0
0
0
0
0
0
0
0
0
0
0
0
0
0
0
0
0
0
0
0
0
0
0
0
0
0
0
0
0
0
0
0
0
0
0
0
0
0
0
0
0
0
0
0
0
0
0
0
0
0
0
0
0
0
0
0
0
0
0
0
0
0
0
0
0
0
0
0
0
0
0
0
0
0
0
0
0
0
0
0
0
0
0
0
0
0
0
0
0
0
0
0
0
0
0
0
0
0
0
0
0
0
0
0
0
0
0
0
0
0
0
0
0
0
0
0
0
0
0
0
0
0
0
0
0
0
0
0
0
0
0
0
0
0
0
0
0
0
0
0
0
0
0
0
0
0
0
0
0
0
0
0
0
0
0
0
0
0
0
0
0
0
0
0
0
0
0
0
0
0
0
0
0
0
0
0
0
0
0
0
0
0
0
0
0
0
0
0
0
0
0
0
0
0
0
0
0
0
0
0
0
0
0
0
0
0
0
0
0
0
0
0
0
0
0
0
0
0
0
0
0
0
0
0
0
0
0
0
0
0
0
0
0
0
0
0
0
0
0
0
0
0
0
0
0
0
0
0
0
0
0
0
0
0
0
0
0
0
0
0
0
0
0
0
0
0
0
0
0
0
0
0
0
0
0
0
0
0
0
0
0
0
0
0
0
0
0
0
0
0
0
0
0
0
0
0
0
0
0
0
0
0
0
0
0
0
0
0
0
0
0
0
0
0
0
0
0
0
0
0
0
0
0
0
0
0
0
0
0
0
0
0
0
0
0
0
0
0
0
0
0
0
0
0
0
0
0
0
0
0
0
0
0
0
0
0
0
0
0
0
0
0
0
0
0
0
0
0
0
0
0
0
0
0
0
0
0
0
0
0
0
0
0
0
0
0
0
0
0
0
0
0
0
0
0
0
0
0
0
0
0
0
0
0
0
0
0
0
0
0
0
0
0
0
0
0
0
0
0
0
0
0
0
0
0
0
0
0
0
0
0
0
0
0
0
0
0
0
0
0
0
0
0
0
0
0
0
0
0
0
0
0
0
0
0
0
0
0
0
0
0
0
0
0
0
0
0
0
0
0
0
0
0
0
0
0
0
0
0
0
0
0
0
0
0
0
0
0
0
0
0
0
0
0
0
0
0
0
0
0
0
0
0
0
0
0
0
0
0
0
0
0
0
0
0
0
0
0
0
0
0
0
0
0
0
0
0
0
0
0
0
0
0
0
0
0
0
0
0
0
0
0
0
0
0
0
0
0
0
0
0
0
0
0
0
0
0
0
0
0
0
0
0
0
0
0
0
0
0
0
0
0
0
0
0
0
0
0
0
0
0
0
0
0
0
0
0
0
0
0
0
0
0
0
0
0
0
0
0
0
0
0
0
0
0
0
0
0
0
0
0
0
0
0
0
0
0
0
0
0
0
0
0
0
0
0
0
0
0
0
0
0
0
0
0
0
0
0
0
0
0
0
0
0
0
0
0
0
0
0
0
0
0
0
0
0
0
0
0
0
0
0
0
0
0
0
0
0
0
0
0
0
0
0
0
0
0
0
0
0
0
0
0
0
0
0
0
0
0
0
0
0
0
0
0
0
0
0
0
0
0
0
0
0
0
0
0
0
0
0
0
0
0
0
0
0
0
0
0
0
0
0
0
0
0
0
0
0
0
0
0
0
0
0
0
0
0
0
0
0
0
0
0
0
0
0
0
0
0
0
0
0
0
0
0
0
0
0
0
0
0
0
0
0
0
0
0
0
0
0
0
0
0
0
0
0
0
0
0
0
0
0
0
0
0
0
0
0
0
0
0
0
0
0
0
0
0
0
0
0
0
0
0
0
0
0
0
0
0
0
0
0
0
0
0
0
0
0
0
0
0
0
0
0
0
0
0
0
0
0
0
0
0
0
0
0
0
0
0
0
0
0
0
0
0
0
0
0
0
0
0
0
0
0
0
0
0
0
0
0
0
0
0
0
0
0
0
0
0
0
0
0
0
0
0
0
0
0
0
0
0
0
0
0
0
0
0
0
0
0
0
0
0
0
0
0
0
0
0
0
0
0
0
0
0
0
0
0
0
0
0
0
0
0
0
0
0
0
0
0
0
0
0
0
0
0
0
0
0
0
0
0
0
0
0
0
0
0
0
0
0
0
0
0
0
0
0
0
0
0
0
0
0
0
0
0
0
0
0
0
0
0
0
0
0
0
0
0
0
0
0
0
0
0
0
0
0
0
0
0
0
0
0
0
0
0
0
0
0
0
0
0
0
0
0
0
0
0
0
0
0
0
0
0
0
0
0
0
0
0
0
0
0
0
0
0
0
0
0
0
0
0
0
0
0
0
0
0
0
0
0
0
0
0
0
0
0
0
0
0
0
0
0
0
0
1.9596457e+18
1.9661295e+18
1.9701663e+18
1.9720582e+18
2.0144426e+18
2.0238534e+18
2.0304138e+18
2.0343116e+18
2.064792e+18
2.0758839e+18
2.0838605e+18
2.0888485e+18
2.113485e+18
2.1255245e+18
2.1342025e+18
2.1396247e+18
1.9720869e+18
1.9705025e+18
1.9675171e+18
1.9633046e+18
2.0357862e+18
2.0350922e+18
2.0324724e+18
2.0281411e+18
2.0910475e+18
2.0906955e+18
2.0880373e+18
2.0833013e+18
2.1419764e+18
2.1414904e+18
2.138415e+18
2.1329889e+18
1.958001e+18
1.9517078e+18
1.9444939e+18
1.9363974e+18
2.0222752e+18
2.0150108e+18
2.006442e+18
1.9966219e+18
2.0766843e+18
2.0683434e+18
2.0583922e+18
2.0469001e+18
2.1254236e+18
2.1158927e+18
2.1045264e+18
2.091411e+18
1.9274266e+18
1.9175598e+18
1.906745e+18
1.8948996e+18
1.9855644e+18
1.9732459e+18
1.9596092e+18
1.9445706e+18
2.0338948e+18
2.0193659e+18
2.0032718e+18
1.9855514e+18
2.0765901e+18
2.0600704e+18
2.0418296e+18
2.0218297e+18
1.8819118e+18
1.8676452e+18
1.851949e+18
1.8346773e+18
1.9280311e+18
1.9098953e+18
1.8900985e+18
1.8686395e+18
1.9661399e+18
1.9449923e+18
1.9221105e+18
1.8975719e+18
2.0000347e+18
1.9764347e+18
1.9510713e+18
1.9240632e+18
0
0
0
0
0
0
0
0
0
0
0
0
0
0
0
0
0
0
0
0
0
0
0
0
0
0
0
0
0
0
0
0
0
0
0
0
0
0
0
0
0
0
0
0
0
0
0
0
0
0
0
0
0
0
0
0
0
0
0
0
0
0
0
0
0
0
0
0
0
0
0
0
0
0
0
0
0
0
0
0
0
0
0
0
0
0
0
0
0
0
0
0
0
0
0
0
0
0
0
0
0
0
0
0
0
0
0
0
0
0
0
0
0
0
0
0
0
0
0
0
0
0
0
0
0
0
0
0
0
0
0
0
0
0
0
0
0
0
0
0
0
0
0
0
0
0
0
0
0
0
0
0
0
0
0
0
0
0
0
0
0
0
0
0
0
0
0
0
0
0
0
0
0
0
0
0
0
0
0
0
0
0
0
0
0
0
0
0
0
0
0
0
0
0
0
0
0
0
0
0
0
0
0
0
0
0
0
0
0
0
0
0
0
0
0
0
0
0
0
0
0
0
0
0
0
0
0
0
0
0
0
0
0
0
0
0
0
0
0
0
2.1618893e+18
2.1745043e+18
2.1834987e+18
2.1889801e+18
2.2105869e+18
2.2235925e+18
2.2327019e+18
2.2380361e+18
2.2597787e+18
2.273078e+18
2.28219e+18
2.2872558e+18
2.3094848e+18
2.3230209e+18
2.3320647e+18
2.3367814e+18
2.1911378e+18
2.1902116e+18
2.186461e+18
2.1801387e+18
2.2397989e+18
2.238246e+18
2.2336538e+18
2.226293e+18
2.2884996e+18
2.2861981e+18
2.2806491e+18
2.2721447e+18
2.3374194e+18
2.3342801e+18
2.3276858e+18
2.3179524e+18
2.171472e+18
2.160651e+18
2.1478227e+18
2.1330898e+18
2.2164093e+18
2.2042109e+18
2.1898624e+18
2.1734831e+18
2.2609511e+18
2.2472965e+18
2.2313642e+18
2.2132909e+18
2.3053691e+18
2.2901855e+18
2.272605e+18
2.2527827e+18
2.1165122e+18
2.098113e+18
2.0778872e+18
2.0558159e+18
2.1551492e+18
2.1348994e+18
2.1127444e+18
2.088681e+18
2.1931693e+18
2.1710535e+18
2.146969e+18
2.120927e+18
2.2308282e+18
2.2068114e+18
2.1807724e+18
2.1527364e+18
2.0318844e+18
2.0061055e+18
1.9785454e+18
1.9493461e+18
2.062711e+18
2.0348642e+18
2.0052235e+18
1.9739465e+18
2.0929435e+18
2.0630621e+18
2.0313794e+18
1.9980653e+18
2.1227325e+18
2.0908172e+18
2.057099e+18
2.021759e+18
0
0
0
0
0
0
0
0
0
0
0
0
0
0
0
0
0
0
0
0
0
0
0
0
0
0
0
0
0
0
0
0
0
0
0
0
0
0
0
0
0
0
0
0
0
0
0
0
0
0
0
0
0
0
0
0
0
0
0
0
0
0
0
0
0
0
0
0
0
0
0
0
0
0
0
0
0
0
0
0
0
0
0
0
0
0
0
0
0
0
0
0
0
0
0
0
0
0
0
0
0
0
0
0
0
0
0
0
0
0
0
0
0
0
0
0
0
0
0
0
0
0
0
0
0
0
0
0
0
0
0
0
0
0
0
0
0
0
0
0
0
0
0
0
0
0
0
0
0
0
0
0
0
0
0
0
0
0
0
0
0
0
0
0
0
0
0
0
0
0
0
0
0
0
0
0
0
0
0
0
0
0
0
0
0
0
0
0
0
0
0
0
0
0
0
0
0
0
0
0
0
0
0
0
0
0
0
0
0
0
0
0
0
0
0
0
0
0
0
0
0
0
0
0
0
0
0
0
0
0
0
0
0
0
0
0
0
0
0
0
2.3596378e+18
2.3733718e+18
2.3822959e+18
2.3866019e+18
2.410126e+18
2.424027e+18
2.4327888e+18
2.4366322e+18
2.4608131e+18
2.4748537e+18
2.4834151e+18
2.4867494e+18
2.5115479e+18
2.5257024e+18
2.5340283e+18
2.5368104e+18
2.3865657e+18
2.3825158e+18
2.3748018e+18
2.3637655e+18
2.4358627e+18
2.4308387e+18
2.4219389e+18
2.4095333e+18
2.4851935e+18
2.479138e+18
2.4689927e+18
2.4551575e+18
2.5344196e+18
2.5272802e+18
2.5158353e+18
2.5005165e+18
2.3497209e+18
2.3329408e+18
2.3136497e+18
2.2920225e+18
2.3939624e+18
2.3755235e+18
2.3544639e+18
2.3309789e+18
2.4380013e+18
2.4178474e+18
2.3949668e+18
2.3695765e+18
2.4817223e+18
2.4598035e+18
2.4350562e+18
2.4077197e+18
2.2681864e+18
2.2422275e+18
2.2142009e+18
2.1841455e+18
2.3052144e+18
2.2772733e+18
2.2472259e+18
2.2151253e+18
2.3418417e+18
2.3118828e+18
2.2797858e+18
2.2456181e+18
2.3779795e+18
2.3459739e+18
2.3118051e+18
2.2755546e+18
2.1521036e+18
2.1181437e+18
2.0823858e+18
2.0450215e+18
2.1810265e+18
2.1450104e+18
2.1072078e+18
2.0678205e+18
2.2094476e+18
2.1713672e+18
2.1315187e+18
2.0901136e+18
2.2373038e+18
2.1971572e+18
2.1552674e+18
2.1118554e+18
0
0
0
0
0
0
0
0
0
0
0
0
0
0
0
0
0
0
0
0
0
0
0
0
0
0
0
0
0
0
0
0
0
0
0
0
0
0
0
0
0
0
0
0
0
0
0
0
0
0
0
0
0
0
0
0
0
0
0
0
0
0
0
0
0
0
0
0
0
0
0
0
0
0
0
0
0
0
0
0
0
0
0
0
0
0
0
0
0
0
0
0
0
0
0
0
0
0
0
0
0
0
0
0
0
0
0
0
0
0
0
0
0
0
0
0
0
0
0
0
0
0
0
0
0
0
0
0
0
0
0
0
0
0
0
0
0
0
0
0
0
0
0
0
0
0
0
0
0
0
0
0
0
0
0
0
0
0
0
0
0
0
0
0
0
0
0
0
0
0
0
0
0
0
0
0
0
0
0
0
0
0
0
0
0
0
0
0
0
0
0
0
0
0
0
0
0
0
0
0
0
0
0
0
0
0
0
0
0
0
0
0
0
0
0
0
0
0
0
0
0
0
0
0
0
0
0
0
0
0
0
0
0
0
0
0
0
0
0
0
2.5621697e+18
2.5764134e+18
2.5844705e+18
2.5866607e+18
2.6125115e+18
2.6268201e+18
2.6345773e+18
2.6361391e+18
2.6624018e+18
2.6767519e+18
2.6841802e+18
2.6850805e+18
2.711667e+18
2.7260357e+18
2.7331084e+18
2.7333182e+18
2.5833905e+18
2.57512e+18
2.5623271e+18
2.5454769e+18
2.6319494e+18
2.6225058e+18
2.6083228e+18
2.5899003e+18
2.679936e+18
2.6692831e+18
2.6536745e+18
2.6336462e+18
2.7271886e+18
2.7152967e+18
2.6982344e+18
2.676575e+18
2.5249989e+18
2.5012728e+18
2.4746205e+18
2.4453048e+18
2.5677003e+18
2.5421322e+18
2.513545e+18
2.4822254e+18
2.609694e+18
2.582258e+18
2.5517148e+18
2.5183759e+18
2.650849e+18
2.6215281e+18
2.5890173e+18
2.5536531e+18
2.4135319e+18
2.3794585e+18
2.3432032e+18
2.3048622e+18
2.448401e+18
2.4122474e+18
2.3738996e+18
2.3334686e+18
2.4824905e+18
2.4442533e+18
2.4038159e+18
2.3613038e+18
2.5157067e+18
2.4753918e+18
2.432877e+18
2.3883019e+18
2.2645298e+18
2.2223223e+18
2.1784028e+18
2.1330015e+18
2.2910614e+18
2.246806e+18
2.2008757e+18
2.1535096e+18
2.3168371e+18
2.2705548e+18
2.2226401e+18
2.1733405e+18
2.3417991e+18
2.2935188e+18
2.2436536e+18
2.1924588e+18
0
0
0
0
0
0
0
0
0
0
0
0
0
0
0
0
0
0
0
0
0
0
0
0
0
0
0
0
0
0
0
0
0
0
0
0
0
0
0
0
0
0
0
0
0
0
0
0
0
0
0
0
0
0
0
0
0
0
0
0
0
0
0
0
0
0
0
0
0
0
0
0
0
0
0
0
0
0
0
0
0
0
0
0
0
0
0
0
0
0
0
0
0
0
0
0
0
0
0
0
0
0
0
0
0
0
0
0
0
0
0
0
0
0
0
0
0
0
0
0
0
0
0
0
0
0
0
0
0
0
0
0
0
0
0
0
0
0
0
0
0
0
0
0
0
0
0
0
0
0
0
0
0
0
0
0
0
0
0
0
0
0
0
0
0
0
0
0
0
0
0
0
0
0
0
0
0
0
0
0
0
0
0
0
0
0
0
0
0
0
0
0
0
0
0
0
0
0
0
0
0
0
0
0
0
0
0
0
0
0
0
0
0
0
0
0
0
0
0
0
0
0
0
0
0
0
0
0
0
0
0
0
0
0
0
0
0
0
0
0
2.7601322e+18
2.7744978e+18
2.7811911e+18
2.7806855e+18
2.8076233e+18
2.8219652e+18
2.8282582e+18
2.8270172e+18
2.853968e+18
2.8682671e+18
2.8741424e+18
2.8721509e+18
2.8989972e+18
2.913236e+18
2.9186799e+18
2.9159282e+18
2.7735464e+18
2.7603924e+18
2.741856e+18
2.7185487e+18
2.8188501e+18
2.8044184e+18
2.7843958e+18
2.759433e+18
2.862944e+18
2.8472266e+18
2.8257144e+18
2.7990978e+18
2.9056765e+18
2.8886736e+18
2.8656775e+18
2.8374182e+18
2.6910367e+18
2.6598236e+18
2.6253433e+18
2.5879576e+18
2.730132e+18
2.6970293e+18
2.6605877e+18
2.6211945e+18
2.768015e+18
2.7330354e+18
2.6946508e+18
2.6532742e+18
2.8045708e+18
2.7677372e+18
2.7274385e+18
2.6841126e+18
2.5479599e+18
2.505583e+18
2.461012e+18
2.4144007e+18
2.5791651e+18
2.5347515e+18
2.4881548e+18
2.439543e+18
2.6092427e+18
2.5628272e+18
2.5142446e+18
2.4636763e+18
2.6381185e+18
2.5897453e+18
2.5392254e+18
2.4867533e+18
2.365894e+18
2.3156524e+18
2.2638776e+18
2.2108326e+18
2.3890725e+18
2.3369141e+18
2.2832778e+18
2.2284337e+18
2.4112903e+18
2.3572667e+18
2.3018237e+18
2.2452376e+18
2.4325076e+18
2.3766776e+18
2.3194888e+18
2.2612235e+18
0
0
0
0
0
0
0
0
0
0
0
0
0
0
0
0
0
0
0
0
0
0
0
0
0
0
0
0
0
0
0
0
0
0
0
0
0
0
0
0
0
0
0
0
0
0
0
0
0
0
0
0
0
0
0
0
0
0
0
0
0
0
0
0
0
0
0
0
0
0
0
0
0
0
0
0
0
0
0
0
0
0
0
0
0
0
0
0
0
0
0
0
0
0
0
0
0
0
0
0
0
0
0
0
0
0
0
0
0
0
0
0
0
0
0
0
0
0
0
0
0
0
0
0
0
0
0
0
0
0
0
0
0
0
0
0
0
0
0
0
0
0
0
0
0
0
0
0
0
0
0
0
0
0
0
0
0
0
0
0
0
0
0
0
0
0
0
0
0
0
0
0
0
0
0
0
0
0
0
0
0
0
0
0
0
0
0
0
0
0
0
0
0
0
0
0
0
0
0
0
0
0
0
0
0
0
0
0
0
0
0
0
0
0
0
0
0
0
0
0
0
0
0
0
0
0
0
0
0
0
0
0
0
0
0
0
0
0
0
0
2.9425464e+18
2.9567092e+18
2.9617117e+18
2.958196e+18
2.9844565e+18
2.9985298e+18
3.0030851e+18
2.9988071e+18
3.024575e+18
3.0385473e+18
3.0426539e+18
3.0376217e+18
3.062757e+18
3.0766193e+18
3.08028e+18
3.0745074e+18
2.9469017e+18
2.9286217e+18
2.9041564e+18
2.8742757e+18
2.9864797e+18
2.9669395e+18
2.9410291e+18
2.909558e+18
3.0242781e+18
3.0035031e+18
2.976181e+18
2.9431602e+18
3.0601719e+18
3.038196e+18
3.009505e+18
2.9749849e+18
2.8396909e+18
2.8010368e+18
2.7588628e+18
2.7136319e+18
2.8732734e+18
2.8328421e+18
2.7888421e+18
2.7417602e+18
2.9052233e+18
2.8630685e+18
2.8173013e+18
2.7684321e+18
2.9354529e+18
2.891638e+18
2.844172e+18
2.7935882e+18
2.6657243e+18
2.6154467e+18
2.5630468e+18
2.5087313e+18
2.6919975e+18
2.6398779e+18
2.5856635e+18
2.5295727e+18
2.7168817e+18
2.662991e+18
2.6070353e+18
2.5492445e+18
2.7403264e+18
2.6847432e+18
2.6271271e+18
2.5677183e+18
2.4526892e+18
2.3951181e+18
2.3362504e+18
2.2763737e+18
2.4718042e+18
2.4125636e+18
2.3520894e+18
2.2906741e+18
2.4898263e+18
2.4289934e+18
2.3669901e+18
2.3041131e+18
2.5067329e+18
2.4443903e+18
2.3809398e+18
2.3166821e+18
0
0
0
0
0
0
0
0
0
0
0
0
0
0
0
0
0
0
0
0
0
0
0
0
0
0
0
0
0
0
0
0
0
0
0
0
0
0
0
0
0
0
0
0
0
0
0
0
0
0
0
0
0
0
0
0
0
0
0
0
0
0
0
0
0
0
0
0
0
0
0
0
0
0
0
0
0
0
0
0
0
0
0
0
0
0
0
0
0
0
0
0
0
0
0
0
0
0
0
0
0
0
0
0
0
0
0
0
0
0
0
0
0
0
0
0
0
0
0
0
0
0
0
0
0
0
0
0
0
0
0
0
0
0
0
0
0
0
0
0
0
0
0
0
0
0
0
0
0
0
0
0
0
0
0
0
0
0
0
0
0
0
0
0
0
0
0
0
0
0
0
0
0
0
0
0
0
0
0
0
0
0
0
0
0
0
0
0
0
0
0
0
0
0
0
0
0
0
0
0
0
0
0
0
0
0
0
0
0
0
0
0
0
0
0
0
0
0
0
0
0
0
0
0
0
0
0
0
0
0
0
0
0
0
0
0
0
0
0
0
3.098866e+18
3.1126115e+18
3.1158333e+18
3.1093404e+18
3.1327743e+18
3.1463986e+18
3.1491932e+18
3.1420058e+18
3.1643639e+18
3.1778651e+18
3.1802482e+18
3.1723981e+18
3.1935269e+18
3.2069053e+18
3.2088967e+18
3.200421e+18
3.0940447e+18
3.0709103e+18
3.0409017e+18
3.0049422e+18
3.1257889e+18
3.1015461e+18
3.0702805e+18
3.0329504e+18
3.1553056e+18
3.1300128e+18
3.0975587e+18
3.0589354e+18
3.1825056e+18
3.1562282e+18
3.1226622e+18
3.0828311e+18
2.9638821e+18
2.9184798e+18
2.8693926e+18
2.8171755e+18
2.990438e+18
2.9435299e+18
2.8929077e+18
2.839147e+18
3.0150553e+18
2.9667315e+18
2.9146686e+18
2.8594615e+18
3.0376759e+18
2.9880344e+18
2.9346326e+18
2.8780833e+18
2.7622866e+18
2.7050974e+18
2.6459085e+18
2.5849698e+18
2.7827229e+18
2.7240211e+18
2.6633533e+18
2.6009787e+18
2.8016013e+18
2.7414867e+18
2.6794399e+18
2.6157283e+18
2.8188925e+18
2.7574708e+18
2.6941502e+18
2.6292053e+18
2.5225052e+18
2.4587402e+18
2.3939287e+18
2.3283747e+18
2.5371281e+18
2.4720324e+18
2.4059497e+18
2.3391867e+18
2.5505892e+18
2.4842584e+18
2.4169975e+18
2.3491158e+18
2.5628793e+18
2.4954124e+18
2.4270693e+18
2.3581613e+18
0
0
0
0
0
0
0
0
0
0
0
0
0
0
0
0
0
0
0
0
0
0
0
0
0
0
0
0
0
0
0
0
0
0
0
0
0
0
0
0
0
0
0
0
0
0
0
0
0
0
0
0
0
0
0
0
0
0
0
0
0
0
0
0
0
0
0
0
0
0
0
0
0
0
0
0
0
0
0
0
0
0
0
0
0
0
0
0
0
0
0
0
0
0
0
0
0
0
0
0
0
0
0
0
0
0
0
0
0
0
0
0
0
0
0
0
0
0
0
0
0
0
0
0
0
0
0
0
0
0
0
0
0
0
0
0
0
0
0
0
0
0
0
0
0
0
0
0
0
0
0
0
0
0
0
0
0
0
0
0
0
0
0
0
0
0
0
0
0
0
0
0
0
0
0
0
0
0
0
0
0
0
0
0
0
0
0
0
0
0
0
0
0
0
0
0
0
0
0
0
0
0
0
0
0
0
0
0
0
0
0
0
0
0
0
0
0
0
0
0
0
0
0
0
0
0
0
0
0
0
0
0
0
0
0
0
0
0
0
0
3.2201653e+18
3.2334238e+18
3.2350471e+18
3.2259884e+18
3.2441922e+18
3.2573354e+18
3.2586182e+18
3.2490237e+18
3.2655309e+18
3.2785658e+18
3.2795388e+18
3.2694602e+18
3.2841158e+18
3.297051e+18
3.2977479e+18
3.287241e+18
3.2073087e+18
3.1801192e+18
3.1455251e+18
3.1045793e+18
3.2296441e+18
3.2016213e+18
3.1660898e+18
3.124129e+18
3.2494504e+18
3.220679e+18
3.1843066e+18
3.141437e+18
3.2666754e+18
3.2372452e+18
3.200134e+18
3.1564668e+18
3.0582489e+18
3.0073949e+18
2.9527628e+18
2.894982e+18
3.0767303e+18
3.0247755e+18
2.9690279e+18
2.910132e+18
3.0930828e+18
3.0401447e+18
2.983402e+18
2.9235124e+18
3.1072753e+18
3.0534766e+18
2.995864e+18
2.9351066e+18
2.834572e+18
2.7719543e+18
2.7074695e+18
2.6413992e+18
2.8486194e+18
2.7849215e+18
2.7193866e+18
2.6523022e+18
2.8610185e+18
2.7963602e+18
2.7298928e+18
2.6619088e+18
2.8717565e+18
2.8062613e+18
2.738982e+18
2.6702156e+18
2.5739915e+18
2.5054904e+18
2.4361634e+18
2.3663236e+18
2.583921e+18
2.5144904e+18
2.44428e+18
2.3736045e+18
2.5926651e+18
2.5224116e+18
2.4514201e+18
2.3800064e+18
2.6002224e+18
2.5292546e+18
2.4575857e+18
2.3855323e+18
0
0
0
0
0
0
0
0
0
0
0
0
0
0
0
0
0
0
0
0
0
0
0
0
0
0
0
0
0
0
0
0
0
0
0
0
0
0
0
0
0
0
0
0
0
0
0
0
0
0
0
0
0
0
0
0
0
0
0
0
0
0
0
0
0
0
0
0
0
0
0
0
0
0
0
0
0
0
0
0
0
0
0
0
0
0
0
0
0
0
0
0
0
0
0
0
0
0
0
0
0
0
0
0
0
0
0
0
0
0
0
0
0
0
0
0
0
0
0
0
0
0
0
0
0
0
0
0
0
0
0
0
0
0
0
0
0
0
0
0
0
0
0
0
0
0
0
0
0
0
0
0
0
0
0
0
0
0
0
0
0
0
0
0
0
0
0
0
0
0
0
0
0
0
0
0
0
0
0
0
0
0
0
0
0
0
0
0
0
0
0
0
0
0
0
0
0
0
0
0
0
0
0
0
0
0
0
0
0
0
0
0
0
0
0
0
0
0
0
0
0
0
0
0
0
0
0
0
0
0
0
0
0
0
0
0
0
0
0
0
3.2998919e+18
3.3127376e+18
3.3131949e+18
3.3023188e+18
3.3128148e+18
3.3255828e+18
3.3258391e+18
3.3146559e+18
3.3228509e+18
3.3355539e+18
3.3356497e+18
3.3242238e+18
3.3299769e+18
3.3426287e+18
3.3426057e+18
3.3310034e+18
3.2812758e+18
3.2512809e+18
3.2135376e+18
3.1691891e+18
3.2932173e+18
3.2627557e+18
3.2244908e+18
3.1795809e+18
3.3024743e+18
3.2716467e+18
3.2329739e+18
3.1876257e+18
3.3090295e+18
3.2779392e+18
3.2389744e+18
3.1933131e+18
3.1192831e+18
3.0647507e+18
3.0063973e+18
2.9449017e+18
3.1290869e+18
3.0739516e+18
3.0149898e+18
2.9528887e+18
3.1366733e+18
3.0810684e+18
3.0216334e+18
2.9590618e+18
3.142034e+18
3.086095e+18
3.0263239e+18
2.9634184e+18
2.8808241e+18
2.8146183e+18
2.7466502e+18
2.6772209e+18
2.8882148e+18
2.8214271e+18
2.7528956e+18
2.6829243e+18
2.8939249e+18
2.826686e+18
2.7577179e+18
2.6873268e+18
2.8979535e+18
2.8303951e+18
2.7611182e+18
2.6904307e+18
2.6065929e+18
2.5350209e+18
2.4627793e+18
2.3901857e+18
2.611778e+18
2.5397127e+18
2.4670042e+18
2.3939703e+18
2.6157795e+18
2.543333e+18
2.4702637e+18
2.39689e+18
2.6186003e+18
2.5458849e+18
2.4725615e+18
2.3989486e+18
0
0
0
0
0
0
0
0
0
0
0
0
0
0
0
0
0
0
0
0
0
0
0
0
0
0
0
0
0
0
0
0
0
0
0
0
0
0
0
0
0
0
0
0
0
0
0
0
0
0
0
0
0
0
0
0
0
0
0
0
0
0
0
0
0
0
0
0
0
0
0
0
0
0
0
0
0
0
0
0
0
0
0
0
0
0
0
0
0
0
0
0
0
0
0
0
0
0
0
0
0
0
0
0
0
0
0
0
0
0
0
0
0
0
0
0
0
0
0
0
0
0
0
0
0
0
0
0
0
0
0
0
0
0
0
0
0
0
0
0
0
0
0
0
0
0
0
0
0
0
0
0
0
0
0
0
0
0
0
0
0
0
0
0
0
0
0
0
0
0
0
0
0
0
0
0
0
0
0
0
0
0
0
0
0
0
0
0
0
0
0
0
0
0
0
0
0
0
0
0
0
0
0
0
0
0
0
0
0
0
0
0
0
0
0
0
0
0
0
0
0
0
0
0
0
0
0
0
0
0
0
0
0
0
0
0
0
0
0
0
3.3341803e+18
3.3467949e+18
3.346696e+18
3.3349846e+18
3.3354584e+18
3.3480504e+18
3.3479188e+18
3.3361662e+18
3.3338191e+18
3.346403e+18
3.3462817e+18
3.3345557e+18
3.3292801e+18
3.3418701e+18
3.3418019e+18
3.3301696e+18
3.3128742e+18
3.2816257e+18
3.2424863e+18
3.1966388e+18
3.3140078e+18
3.2827063e+18
3.2435103e+18
3.1976039e+18
3.3124378e+18
3.2811884e+18
3.2420537e+18
3.1962157e+18
3.3081799e+18
3.2770867e+18
3.2381301e+18
3.1924866e+18
3.145166e+18
3.0890297e+18
3.0290606e+18
2.9659589e+18
3.1460713e+18
3.0898749e+18
3.0298464e+18
2.9666866e+18
3.1447565e+18
3.0886371e+18
3.0286875e+18
2.9656074e+18
3.1412334e+18
3.0853269e+18
3.0255937e+18
2.9627301e+18
2.9003017e+18
2.8325564e+18
2.7630992e+18
2.6922388e+18
2.9009731e+18
2.8331736e+18
2.7636647e+18
2.6927552e+18
2.8999733e+18
2.8322521e+18
2.7628198e+18
2.6919846e+18
2.8973102e+18
2.829799e+18
2.7605707e+18
2.6899325e+18
2.6202437e+18
2.5473722e+18
2.4739014e+18
2.4001499e+18
2.6207137e+18
2.5477986e+18
2.474287e+18
2.4004975e+18
2.6200147e+18
2.5471682e+18
2.4737221e+18
2.3999949e+18
2.6181516e+18
2.5454854e+18
2.4722106e+18
2.3986452e+18
0
0
0
0
0
0
0
0
0
0
0
0
0
0
0
0
0
0
0
0
0
0
0
0
0
0
0
0
0
0
0
0
0
0
0
0
0
0
0
0
0
0
0
0
0
0
0
0
0
0
0
0
0
0
0
0
0
0
0
0
0
0
0
0
0
0
0
0
0
0
0
0
0
0
0
0
0
0
0
0
0
0
0
0
0
0
0
0
0
0
0
0
0
0
0
0
0
0
0
0
0
0
0
0
0
0
0
0
0
0
0
0
0
0
0
0
0
0
0
0
0
0
0
0
0
0
0
0
0
0
0
0
0
0
0
0
0
0
0
0
0
0
0
0
0
0
0
0
0
0
0
0
0
0
0
0
0
0
0
0
0
0
0
0
0
0
0
0
0
0
0
0
0
0
0
0
0
0
0
0
0
0
0
0
0
0
0
0
0
0
0
0
0
0
0
0
0
0
0
0
0
0
0
0
0
0
0
0
0
0
0
0
0
0
0
0
0
0
0
0
0
0
0
0
0
0
0
0
0
0
0
0
0
0
0
0
0
0
0
0
3.3218693e+18
3.3344791e+18
3.3345055e+18
3.323033e+18
3.3116244e+18
3.3242668e+18
3.3244282e+18
3.3131794e+18
3.2985931e+18
3.3112797e+18
3.3116146e+18
3.3006512e+18
3.2828326e+18
3.2955741e+18
3.2961187e+18
3.2854992e+18
3.3012576e+18
3.270423e+18
3.2317597e+18
3.1864351e+18
3.2917022e+18
3.2612263e+18
3.2229688e+18
3.178085e+18
3.2795533e+18
3.249533e+18
3.2117906e+18
3.1674659e+18
3.2648583e+18
3.2353867e+18
3.1982646e+18
3.1546132e+18
3.1355184e+18
3.0799592e+18
3.0205779e+18
2.9580661e+18
3.1276329e+18
3.0725526e+18
3.0136566e+18
2.9516297e+18
3.1176031e+18
3.0631304e+18
3.0048499e+18
2.943438e+18
3.1054605e+18
3.05172e+18
2.9941816e+18
2.9335115e+18
2.8929938e+18
2.8258228e+18
2.7569249e+18
2.6866052e+18
2.8870363e+18
2.820334e+18
2.751891e+18
2.68201e+18
2.8794524e+18
2.8133447e+18
2.7454792e+18
2.6761551e+18
2.870259e+18
2.8048693e+18
2.7377012e+18
2.6690501e+18
2.6151296e+18
2.5427547e+18
2.4697561e+18
2.3964518e+18
2.6109549e+18
2.5389808e+18
2.4663626e+18
2.3934176e+18
2.605634e+18
2.5341691e+18
2.4620341e+18
2.3895458e+18
2.5991745e+18
2.5283254e+18
2.4567752e+18
2.3848396e+18
0
0
0
0
0
0
0
0
0
0
0
0
0
0
0
0
0
0
0
0
0
0
0
0
0
0
0
0
0
0
0
0
0
0
0
0
0
0
0
0
0
0
0
0
0
0
0
0
0
0
0
0
0
0
0
0
0
0
0
0
0
0
0
0
0
0
0
0
0
0
0
0
0
0
0
0
0
0
0
0
0
0
0
0
0
0
0
0
0
0
0
0
0
0
0
0
0
0
0
0
0
0
0
0
0
0
0
0
0
0
0
0
0
0
0
0
0
0
0
0
0
0
0
0
0
0
0
0
0
0
0
0
0
0
0
0
0
0
0
0
0
0
0
0
0
0
0
0
0
0
0
0
0
0
0
0
0
0
0
0
0
0
0
0
0
0
0
0
0
0
0
0
0
0
0
0
0
0
0
0
0
0
0
0
0
0
0
0
0
0
0
0
0
0
0
0
0
0
0
0
0
0
0
0
0
0
0
0
0
0
0
0
0
0
0
0
0
0
0
0
0
0
0
0
0
0
0
0
0
0
0
0
0
0
0
0
0
0
0
0
3.2644103e+18
3.2772153e+18
3.2780033e+18
3.2677831e+18
3.2434027e+18
3.2562784e+18
3.2573405e+18
3.247571e+18
3.219896e+18
3.2328477e+18
3.2342113e+18
3.2249396e+18
3.1939859e+18
3.2070166e+18
3.2087059e+18
3.1999742e+18
3.2476727e+18
3.2188383e+18
3.182437e+18
3.1395686e+18
3.22806e+18
3.1999464e+18
3.1643609e+18
3.1223793e+18
3.2060918e+18
3.1787767e+18
3.1440961e+18
3.1030992e+18
3.1818479e+18
3.1554029e+18
3.1217096e+18
3.0817886e+18
3.0912417e+18
3.0383534e+18
2.9816793e+18
2.9218737e+18
3.0749888e+18
3.0230674e+18
2.9673748e+18
2.9085517e+18
3.0567494e+18
3.0059038e+18
2.9513042e+18
2.8935764e+18
3.0365771e+18
2.9869096e+18
2.9335083e+18
2.8769827e+18
2.8594762e+18
2.7949243e+18
2.7285705e+18
2.6607057e+18
2.8471268e+18
2.7835285e+18
2.7181026e+18
2.6511343e+18
2.8332367e+18
2.7707036e+18
2.7063151e+18
2.6403502e+18
2.8178355e+18
2.7564742e+18
2.6932282e+18
2.6283696e+18
2.5915847e+18
2.5214562e+18
2.4505905e+18
2.3793025e+18
2.5828746e+18
2.5135689e+18
2.4434857e+18
2.3729384e+18
2.5730552e+18
2.5046722e+18
2.4354672e+18
2.3657519e+18
2.5621395e+18
2.494776e+18
2.4265423e+18
2.3577483e+18
0
0
0
0
0
0
0
0
0
0
0
0
0
0
0
0
0
0
0
0
0
0
0
0
0
0
0
0
0
0
0
0
0
0
0
0
0
0
0
0
0
0
0
0
0
0
0
0
0
0
0
0
0
0
0
0
0
0
0
0
0
0
0
0
0
0
0
0
0
0
0
0
0
0
0
0
0
0
0
0
0
0
0
0
0
0
0
0
0
0
0
0
0
0
0
0
0
0
0
0
0
0
0
0
0
0
0
0
0
0
0
0
0
0
0
0
0
0
0
0
0
0
0
0
0
0
0
0
0
0
0
0
0
0
0
0
0
0
0
0
0
0
0
0
0
0
0
0
0
0
0
0
0
0
0
0
0
0
0
0
0
0
0
0
0
0
0
0
0
0
0
0
0
0
0
0
0
0
0
0
0
0
0
0
0
0
0
0
0
0
0
0
0
0
0
0
0
0
0
0
0
0
0
0
0
0
0
0
0
0
0
0
0
0
0
0
0
0
0
0
0
0
0
0
0
0
0
0
0
0
0
0
0
0
0
0
0
0
0
0
3.1657768e+18
3.1788877e+18
3.1809229e+18
3.1727687e+18
3.1353823e+18
3.1485723e+18
3.1509697e+18
3.1434252e+18
3.1029243e+18
3.1161899e+18
3.1189621e+18
3.1120539e+18
3.0685327e+18
3.0818684e+18
3.0850238e+18
3.078773e+18
3.1554162e+18
3.129906e+18
3.0972756e+18
3.0585142e+18
3.1268923e+18
3.1023749e+18
3.0708751e+18
3.0333494e+18
3.0963801e+18
3.0729059e+18
3.0425965e+18
3.0063744e+18
3.0639908e+18
3.0416027e+18
3.0125355e+18
2.9776761e+18
3.0145314e+18
2.9661372e+18
2.9140328e+18
2.8588099e+18
2.9906779e+18
2.9436445e+18
2.8929282e+18
2.8391016e+18
2.9650885e+18
2.9194956e+18
2.8702507e+18
2.8179066e+18
2.9378416e+18
2.89376e+18
2.8460618e+18
2.7952786e+18
2.8009565e+18
2.7408683e+18
2.678865e+18
2.6152113e+18
2.782637e+18
2.7239172e+18
2.6632516e+18
2.6008966e+18
2.7629189e+18
2.7056564e+18
2.6464175e+18
2.5854498e+18
2.7418483e+18
2.6861254e+18
2.6283961e+18
2.5688986e+18
2.5501423e+18
2.4838919e+18
2.41672e+18
2.3489342e+18
2.5370809e+18
2.4720335e+18
2.4060105e+18
2.3393173e+18
2.5229749e+18
2.4592163e+18
2.3944261e+18
2.3289068e+18
2.507847e+18
2.4454586e+18
2.3819813e+18
2.3177139e+18
0
0
0
0
0
0
0
0
0
0
0
0
0
0
0
0
0
0
0
0
0
0
0
0
0
0
0
0
0
0
0
0
0
0
0
0
0
0
0
0
0
0
0
0
0
0
0
0
0
0
0
0
0
0
0
0
0
0
0
0
0
0
0
0
0
0
0
0
0
0
0
0
0
0
0
0
0
0
0
0
0
0
0
0
0
0
0
0
0
0
0
0
0
0
0
0
0
0
0
0
0
0
0
0
0
0
0
0
0
0
0
0
0
0
0
0
0
0
0
0
0
0
0
0
0
0
0
0
0
0
0
0
0
0
0
0
0
0
0
0
0
0
0
0
0
0
0
0
0
0
0
0
0
0
0
0
0
0
0
0
0
0
0
0
0
0
0
0
0
0
0
0
0
0
0
0
0
0
0
0
0
0
0
0
0
0
0
0
0
0
0
0
0
0
0
0
0
0
0
0
0
0
0
0
0
0
0
0
0
0
0
0
0
0
0
0
0
0
0
0
0
0
0
0
0
0
0
0
0
0
0
0
0
0
0
0
0
0
0
0
3.0323452e+18
3.0457431e+18
3.049286e+18
3.0437082e+18
2.9945061e+18
3.0079565e+18
3.0118871e+18
3.0069921e+18
2.9551663e+18
2.9686572e+18
2.9729719e+18
2.968764e+18
2.9144821e+18
2.9279999e+18
2.9326913e+18
2.9291693e+18
3.0298433e+18
3.0085761e+18
2.9807943e+18
2.9473483e+18
2.9940634e+18
2.9739442e+18
2.9474824e+18
2.9154911e+18
2.9567834e+18
2.9378313e+18
2.9127154e+18
2.8822113e+18
2.9181418e+18
2.9003681e+18
2.8766155e+18
2.8476216e+18
2.9090218e+18
2.8665137e+18
2.8204286e+18
2.7712764e+18
2.8787203e+18
2.8378385e+18
2.7934242e+18
2.7459644e+18
2.8470344e+18
2.8078225e+18
2.7651273e+18
2.7194125e+18
2.8140673e+18
2.7765595e+18
2.7356223e+18
2.6916959e+18
2.7194764e+18
2.6653679e+18
2.6092245e+18
2.5512742e+18
2.6958595e+18
2.6434325e+18
2.5889441e+18
2.5326115e+18
2.6710587e+18
2.6203726e+18
2.567601e+18
2.5129496e+18
2.6451407e+18
2.5962464e+18
2.5452455e+18
2.4923319e+18
2.4917228e+18
2.4307814e+18
2.3686926e+18
2.3057516e+18
2.4746317e+18
2.4152087e+18
2.3545796e+18
2.2930356e+18
2.4566064e+18
2.3987678e+18
2.3396648e+18
2.2795839e+18
2.4376838e+18
2.3814895e+18
2.3239736e+18
2.2654174e+18
0
0
0
0
0
0
0
0
0
0
0
0
0
0
0
0
0
0
0
0
0
0
0
0
0
0
0
0
0
0
0
0
0
0
0
0
0
0
0
0
0
0
0
0
0
0
0
0
0
0
0
0
0
0
0
0
0
0
0
0
0
0
0
0
0
0
0
0
0
0
0
0
0
0
0
0
0
0
0
0
0
0
0
0
0
0
0
0
0
0
0
0
0
0
0
0
0
0
0
0
0
0
0
0
0
0
0
0
0
0
0
0
0
0
0
0
0
0
0
0
0
0
0
0
0
0
0
0
0
0
0
0
0
0
0
0
0
0
0
0
0
0
0
0
0
0
0
0
0
0
0
0
0
0
0
0
0
0
0
0
0
0
0
0
0
0
0
0
0
0
0
0
0
0
0
0
0
0
0
0
0
0
0
0
0
0
0
0
0
0
0
0
0
0
0
0
0
0
0
0
0
0
0
0
0
0
0
0
0
0
0
0
0
0
0
0
0
0
0
0
0
0
0
0
0
0
0
0
0
0
0
0
0
0
0
0
0
0
0
0
2.8726146e+18
2.8861437e+18
2.8912008e+18
2.8883585e+18
2.8297286e+18
2.8432522e+18
2.8486607e+18
2.8464865e+18
2.785992e+18
2.7994919e+18
2.8052342e+18
2.8037122e+18
2.7415744e+18
2.7550314e+18
2.7610874e+18
2.7601971e+18
2.8782825e+18
2.8616908e+18
2.8393103e+18
2.8118408e+18
2.8373543e+18
2.8219406e+18
2.8009326e+18
2.7749927e+18
2.7955098e+18
2.7812632e+18
2.7616202e+18
2.7372063e+18
2.752905e+18
2.7398076e+18
2.7215144e+18
2.6986147e+18
2.7799285e+18
2.7441491e+18
2.7049994e+18
2.6628955e+18
2.7447325e+18
2.7106967e+18
2.6733543e+18
2.6330977e+18
2.7085991e+18
2.6763124e+18
2.640788e+18
2.6023941e+18
2.6716526e+18
2.6411116e+18
2.6074063e+18
2.5708811e+18
2.6181774e+18
2.5711173e+18
2.5219331e+18
2.4708063e+18
2.5902461e+18
2.5450538e+18
2.4977239e+18
2.4484251e+18
2.561429e+18
2.5181294e+18
2.472683e+18
2.4252456e+18
2.5318137e+18
2.4904227e+18
2.4468804e+18
2.4013294e+18
2.4179049e+18
2.3634087e+18
2.3075351e+18
2.2505602e+18
2.3973148e+18
2.3445638e+18
2.2903821e+18
2.2350397e+18
2.3759633e+18
2.3249978e+18
2.2725511e+18
2.2188868e+18
2.3539046e+18
2.3047577e+18
2.2540827e+18
2.202136e+18
0
0
0
0
0
0
0
0
0
0
0
0
0
0
0
0
0
0
0
0
0
0
0
0
0
0
0
0
0
0
0
0
0
0
0
0
0
0
0
0
0
0
0
0
0
0
0
0
0
0
0
0
0
0
0
0
0
0
0
0
0
0
0
0
0
0
0
0
0
0
0
0
0
0
0
0
0
0
0
0
0
0
0
0
0
0
0
0
0
0
0
0
0
0
0
0
0
0
0
0
0
0
0
0
0
0
0
0
0
0
0
0
0
0
0
0
0
0
0
0
0
0
0
0
0
0
0
0
0
0
0
0
0
0
0
0
0
0
0
0
0
0
0
0
0
0
0
0
0
0
0
0
0
0
0
0
0
0
0
0
0
0
0
0
0
0
0
0
0
0
0
0
0
0
0
0
0
0
0
0
0
0
0
0
0
0
0
0
0
0
0
0
0
0
0
0
0
0
0
0
0
0
0
0
0
0
0
0
0
0
0
0
0
0
0
0
0
0
0
0
0
0
0
0
0
0
0
0
0
0
0
0
0
0
0
0
0
0
0
0
2.6966465e+18
2.7100407e+18
2.7163877e+18
2.7161048e+18
2.6513792e+18
2.66469e+18
2.6713031e+18
2.6716e+18
2.6059421e+18
2.6191487e+18
2.6260015e+18
2.6268472e+18
2.5605033e+18
2.5735849e+18
2.5806496e+18
2.5820107e+18
2.7096982e+18
2.6977258e+18
2.68076e+18
2.6593547e+18
2.6660493e+18
2.655172e+18
2.6395044e+18
2.6195662e+18
2.6221187e+18
2.6123013e+18
2.5978966e+18
2.5793914e+18
2.578067e+18
2.5692696e+18
2.5560868e+18
2.5389739e+18
2.6340214e+18
2.6052136e+18
2.5733196e+18
2.5386602e+18
2.5958371e+18
2.5687419e+18
2.5386426e+18
2.505837e+18
2.5572346e+18
2.531823e+18
2.5034934e+18
2.4725214e+18
2.5183505e+18
2.4945863e+18
2.4679938e+18
2.4388266e+18
2.5014924e+18
2.4620171e+18
2.420391e+18
2.3767434e+18
2.470562e+18
2.4330006e+18
2.3932942e+18
2.3515586e+18
2.4391236e+18
2.4034659e+18
2.3656742e+18
2.325851e+18
2.4072823e+18
2.3735096e+18
2.3376195e+18
2.299701e+18
2.3311975e+18
2.2838951e+18
2.2350214e+18
2.1848257e+18
2.3079053e+18
2.2624657e+18
2.2154162e+18
2.1669984e+18
2.284096e+18
2.24053e+18
2.1953202e+18
2.1487006e+18
2.2598419e+18
2.2181527e+18
2.1747911e+18
2.129983e+18
0
0
0
0
0
0
0
0
0
0
0
0
0
0
0
0
0
0
0
0
0
0
0
0
0
0
0
0
0
0
0
0
0
0
0
0
0
0
0
0
0
0
0
0
0
0
0
0
0
0
0
0
0
0
0
0
0
0
0
0
0
0
0
0
0
0
0
0
0
0
0
0
0
0
0
0
0
0
0
0
0
0
0
0
0
0
0
0
0
0
0
0
0
0
0
0
0
0
0
0
0
0
0
0
0
0
0
0
0
0
0
0
0
0
0
0
0
0
0
0
0
0
0
0
0
0
0
0
0
0
0
0
0
0
0
0
0
0
0
0
0
0
0
0
0
0
0
0
0
0
0
0
0
0
0
0
0
0
0
0
0
0
0
0
0
0
0
0
0
0
0
0
0
0
0
0
0
0
0
0
0
0
0
0
0
0
0
0
0
0
0
0
0
0
0
0
0
0
0
0
0
0
0
0
0
0
0
0
0
0
0
0
0
0
0
0
0
0
0
0
0
0
0
0
0
0
0
0
0
0
0
0
0
0
0
0
0
0
0
0
2.515228e+18
2.5281641e+18
2.535412e+18
2.5372531e+18
2.4702782e+18
2.4830489e+18
2.4904507e+18
2.4927347e+18
2.4258119e+18
2.4383982e+18
2.4459245e+18
2.4486134e+18
2.3819825e+18
2.3943665e+18
2.4019883e+18
2.4050437e+18
2.5340535e+18
2.5262321e+18
2.5142255e+18
2.4984588e+18
2.4902363e+18
2.4833435e+18
2.472463e+18
2.4579912e+18
2.4467712e+18
2.4407569e+18
2.4309487e+18
2.4177164e+18
2.4038115e+18
2.3986234e+18
2.3898314e+18
2.3777796e+18
2.4793234e+18
2.4571634e+18
2.4322678e+18
2.4048693e+18
2.4402929e+18
2.4196877e+18
2.3964422e+18
2.3707691e+18
2.4013994e+18
2.382294e+18
2.3606458e+18
2.3366483e+18
2.3627839e+18
2.3451186e+18
2.3250095e+18
2.3026321e+18
2.3751469e+18
2.3432326e+18
2.3092227e+18
2.2731931e+18
2.3428295e+18
2.3127394e+18
2.2805807e+18
2.2464167e+18
2.3104456e+18
2.2821383e+18
2.2517946e+18
2.2194652e+18
2.2781142e+18
2.2515418e+18
2.2229699e+18
2.1924372e+18
2.23522e+18
2.1954031e+18
2.1538907e+18
2.1109005e+18
2.2103117e+18
2.172355e+18
2.1326856e+18
2.0915127e+18
2.1852031e+18
2.1490872e+18
2.1112471e+18
2.0718836e+18
2.1599855e+18
2.1256837e+18
2.0896518e+18
2.0520827e+18
0
0
0
0
0
0
0
0
0
0
0
0
0
0
0
0
0
0
0
0
0
0
0
0
0
0
0
0
0
0
0
0
0
0
0
0
0
0
0
0
0
0
0
0
0
0
0
0
0
0
0
0
0
0
0
0
0
0
0
0
0
0
0
0
0
0
0
0
0
0
0
0
0
0
0
0
0
0
0
0
0
0
0
0
0
0
0
0
0
0
0
0
0
0
0
0
0
0
0
0
0
0
0
0
0
0
0
0
0
0
0
0
0
0
0
0
0
0
0
0
0
0
0
0
0
0
0
0
0
0
0
0
0
0
0
0
0
0
0
0
0
0
0
0
0
0
0
0
0
0
0
0
0
0
0
0
0
0
0
0
0
0
0
0
0
0
0
0
0
0
0
0
0
0
0
0
0
0
0
0
0
0
0
0