/*--------------------------------*- C++ -*----------------------------------*\
| =========                 |                                                 |
| \\      /  F ield         | OpenFOAM: The Open Source CFD Toolbox           |
|  \\    /   O peration     | Version:  1.4.1-dev                             |
|   \\  /    A nd           | Web:      http://www.openfoam.org               |
|    \\/     M anipulation  |                                                 |
\*---------------------------------------------------------------------------*/

FoamFile
{
    version 2.0;
    format ascii;

    root "/home/cliffoi/OpenFOAM/cliffoi-1.4.1-dev/run/diffusionFoam";
    case "oecd_simplified_2G";
    instance "0";
    local "";

    class volScalarField;
    object _157Eu;
}

// * * * * * * * * * * * * * * * * * * * * * * * * * * * * * * * * * * * * * //

dimensions      [0 -3 0 0 0 0 0];

internalField   nonuniform List<scalar> 
9280
(
0
0
0
0
0
0
0
0
0
0
0
0
0
0
0
0
0
0
0
0
0
0
0
0
0
0
0
0
0
0
0
0
0
0
0
0
0
0
0
0
0
0
0
0
0
0
0
0
0
0
0
0
0
0
0
0
0
0
0
0
0
0
0
0
0
0
0
0
0
0
0
0
0
0
0
0
0
0
0
0
0
0
0
0
0
0
0
0
0
0
0
0
0
0
0
0
0
0
0
0
0
0
0
0
0
0
0
0
0
0
0
0
0
0
0
0
0
0
0
0
0
0
0
0
0
0
0
0
0
0
0
0
0
0
0
0
0
0
0
0
0
0
0
0
0
0
0
0
0
0
0
0
0
0
0
0
0
0
0
0
0
0
0
0
0
0
0
0
0
0
0
0
0
0
0
0
0
0
0
0
0
0
0
0
0
0
0
0
0
0
0
0
0
0
0
0
0
0
0
0
0
0
0
0
0
0
0
0
0
0
0
0
0
0
0
0
0
0
0
0
0
0
0
0
0
0
0
0
0
0
0
0
0
0
0
0
0
0
0
0
0
0
0
0
0
0
0
0
0
0
0
0
0
0
0
0
0
0
0
0
0
0
0
0
0
0
0
0
0
0
0
0
0
0
0
0
0
0
0
0
0
0
0
0
0
0
0
0
0
0
0
0
0
0
0
0
0
0
0
0
0
0
0
0
0
0
0
0
0
0
0
0
0
0
0
0
0
0
0
0
0
0
0
0
0
0
0
0
0
0
0
0
0
0
0
0
0
0
0
0
0
0
0
0
0
0
0
0
0
0
0
0
0
0
0
0
0
0
0
0
0
0
0
0
0
0
0
0
0
0
0
0
0
0
0
0
0
0
0
0
0
0
0
0
0
0
0
0
0
0
0
0
0
0
0
0
0
0
0
0
0
0
0
0
0
0
0
0
0
0
0
0
0
0
0
0
0
0
0
0
0
0
0
0
0
0
0
0
0
0
0
0
0
0
0
0
0
0
0
0
0
0
0
0
0
0
0
0
0
0
0
0
0
0
0
0
0
0
0
0
0
0
0
0
0
0
0
0
0
0
0
0
0
0
0
0
0
0
0
0
0
0
0
0
0
0
0
0
0
0
0
0
0
0
0
0
0
0
0
0
0
0
0
0
0
0
0
0
0
0
0
0
0
0
0
0
0
0
0
0
0
0
0
0
0
0
0
0
0
0
0
0
0
0
0
0
0
0
0
0
0
0
0
0
0
0
0
0
0
0
0
0
0
0
0
0
0
0
0
0
0
0
0
0
0
0
0
0
0
0
0
0
0
0
0
0
0
0
0
0
0
0
0
0
0
0
0
0
0
0
0
0
0
0
0
0
0
0
0
0
0
0
0
0
0
0
0
0
0
0
0
0
0
0
0
0
0
0
0
0
0
0
0
0
0
0
0
0
0
0
0
0
0
0
0
0
0
0
0
0
0
0
0
0
0
0
0
0
0
0
0
0
0
0
0
0
0
0
0
0
0
0
0
0
0
0
0
0
0
0
0
0
0
0
0
0
0
0
0
0
0
0
0
0
0
0
0
0
0
0
0
0
0
0
0
0
0
0
0
0
0
0
0
0
0
0
0
0
0
0
0
0
0
0
0
0
0
0
0
0
0
0
0
0
0
0
0
0
0
0
0
0
0
0
0
0
0
0
0
0
0
0
0
0
0
0
0
0
0
0
0
0
0
0
0
0
0
0
0
0
0
0
0
0
0
0
0
0
0
0
0
0
0
0
0
0
0
0
0
0
0
0
0
0
0
0
0
0
0
0
0
0
0
0
0
0
0
0
0
0
0
0
0
0
0
0
0
0
0
0
0
0
0
0
0
0
0
0
0
0
0
0
0
0
0
0
0
0
0
0
0
0
0
0
0
0
0
0
0
0
0
0
0
0
0
0
0
0
0
0
0
0
0
0
0
0
0
0
0
0
0
0
0
0
0
0
0
0
0
0
0
0
0
0
0
0
0
0
0
0
0
0
0
0
0
0
0
0
0
0
0
0
0
0
0
0
0
0
0
0
0
0
0
0
0
0
0
0
0
0
0
0
0
0
0
0
0
0
0
0
0
0
0
0
0
0
0
0
0
0
0
0
0
0
0
0
0
0
0
0
0
0
0
0
0
0
0
0
0
0
0
0
0
0
0
0
0
0
0
0
0
0
0
0
0
0
0
0
0
0
0
0
0
0
0
0
0
0
0
0
0
0
0
0
0
0
0
0
0
0
0
0
0
0
0
0
0
0
0
0
0
0
0
0
0
0
0
0
0
0
0
0
0
0
0
0
0
0
0
0
0
0
0
0
0
0
0
0
0
0
0
0
0
0
0
0
0
0
0
0
0
0
0
0
0
0
0
0
0
0
0
0
0
0
0
0
6.6201224e+17
6.3288001e+17
6.1096908e+17
5.9413884e+17
6.75941e+17
6.3605104e+17
6.0565302e+17
5.8225915e+17
7.0871634e+17
6.6184957e+17
6.2579301e+17
5.9788053e+17
7.4832733e+17
6.9637912e+17
6.5620979e+17
6.2499524e+17
5.8087215e+17
5.7008745e+17
5.6101517e+17
5.5311508e+17
5.6402718e+17
5.4960066e+17
5.3799073e+17
5.2848977e+17
5.7611034e+17
5.5898816e+17
5.4541031e+17
5.3457724e+17
6.0060854e+17
5.8145558e+17
5.663534e+17
5.5444049e+17
5.4602039e+17
5.395003e+17
5.3343607e+17
5.2780726e+17
5.2060935e+17
5.140369e+17
5.0860701e+17
5.0428461e+17
5.2593048e+17
5.1910777e+17
5.1391288e+17
5.1029742e+17
5.4511131e+17
5.3796986e+17
5.3279808e+17
5.2953676e+17
5.226868e+17
5.1824403e+17
5.1475637e+17
5.126311e+17
5.0115832e+17
4.9944324e+17
4.9949299e+17
5.0182178e+17
5.0835307e+17
5.083133e+17
5.1056431e+17
5.1566562e+17
5.2827713e+17
5.2926214e+17
5.3289736e+17
5.3977177e+17
5.1244068e+17
5.1497736e+17
5.2133761e+17
5.3305436e+17
5.0713759e+17
5.1638847e+17
5.3082373e+17
5.5207149e+17
5.2438106e+17
5.3772173e+17
5.5700281e+17
5.8391708e+17
5.506895e+17
5.6671428e+17
5.8922923e+17
6.2001546e+17
0
0
0
0
0
0
0
0
0
0
0
0
0
0
0
0
0
0
0
0
0
0
0
0
0
0
0
0
0
0
0
0
0
0
0
0
0
0
0
0
0
0
0
0
0
0
0
0
0
0
0
0
0
0
0
0
0
0
0
0
0
0
0
0
0
0
0
0
0
0
0
0
0
0
0
0
0
0
0
0
0
0
0
0
0
0
0
0
0
0
0
0
0
0
0
0
0
0
0
0
0
0
0
0
0
0
0
0
0
0
0
0
0
0
0
0
0
0
0
0
0
0
0
0
0
0
0
0
0
0
0
0
0
0
0
0
0
0
0
0
0
0
0
0
0
0
0
0
0
0
0
0
0
0
0
0
0
0
0
0
0
0
0
0
0
0
0
0
0
0
0
0
0
0
0
0
0
0
0
0
0
0
0
0
0
0
0
0
0
0
0
0
0
0
0
0
0
0
0
0
0
0
0
0
0
0
0
0
0
0
0
0
0
0
0
0
0
0
0
0
0
0
0
0
0
0
0
0
0
0
0
0
0
0
0
0
0
0
0
0
7.8959918e+17
7.3358105e+17
6.9014667e+17
6.5632149e+17
8.3025099e+17
7.7075482e+17
7.2455112e+17
6.8852294e+17
8.6928935e+17
8.0670062e+17
7.5804587e+17
7.2007451e+17
9.0630625e+17
8.4090516e+17
7.9002633e+17
7.502946e+17
6.2986381e+17
6.0909159e+17
5.9275454e+17
5.7994004e+17
6.6032075e+17
6.3818077e+17
6.2079099e+17
6.0719268e+17
6.9033586e+17
6.6698963e+17
6.4866623e+17
6.3436406e+17
7.1916485e+17
6.9472532e+17
6.7555259e+17
6.6060515e+17
5.7000471e+17
5.6252571e+17
5.5726781e+17
5.5416339e+17
5.9670875e+17
5.8889291e+17
5.8349532e+17
5.8044171e+17
6.23375e+17
6.1523142e+17
6.0967044e+17
6.0661232e+17
6.4914598e+17
6.4068772e+17
6.3495564e+17
6.3186525e+17
5.5330361e+17
5.5493975e+17
5.5949462e+17
5.6758442e+17
5.7982423e+17
5.8190302e+17
5.8711829e+17
5.9611344e+17
6.0615097e+17
6.0855579e+17
6.1428443e+17
6.2400717e+17
6.3151266e+17
6.3417652e+17
6.4033149e+17
6.506738e+17
5.8005226e+17
5.9801535e+17
6.2292868e+17
6.566692e+17
6.0977059e+17
6.2926043e+17
6.5610978e+17
6.9229084e+17
6.3864426e+17
6.5941844e+17
6.8792598e+17
7.2623061e+17
6.6616029e+17
6.8806338e+17
7.1804532e+17
7.5825652e+17
0
0
0
0
0
0
0
0
0
0
0
0
0
0
0
0
0
0
0
0
0
0
0
0
0
0
0
0
0
0
0
0
0
0
0
0
0
0
0
0
0
0
0
0
0
0
0
0
0
0
0
0
0
0
0
0
0
0
0
0
0
0
0
0
0
0
0
0
0
0
0
0
0
0
0
0
0
0
0
0
0
0
0
0
0
0
0
0
0
0
0
0
0
0
0
0
0
0
0
0
0
0
0
0
0
0
0
0
0
0
0
0
0
0
0
0
0
0
0
0
0
0
0
0
0
0
0
0
0
0
0
0
0
0
0
0
0
0
0
0
0
0
0
0
0
0
0
0
0
0
0
0
0
0
0
0
0
0
0
0
0
0
0
0
0
0
0
0
0
0
0
0
0
0
0
0
0
0
0
0
0
0
0
0
0
0
0
0
0
0
0
0
0
0
0
0
0
0
0
0
0
0
0
0
0
0
0
0
0
0
0
0
0
0
0
0
0
0
0
0
0
0
0
0
0
0
0
0
0
0
0
0
0
0
0
0
0
0
0
0
9.4116359e+17
8.7317407e+17
8.2024957e+17
7.7889926e+17
9.7384929e+17
9.0346315e+17
8.4864406e+17
8.0579412e+17
1.0044107e+18
9.3179971e+17
8.7522041e+17
8.3097607e+17
1.0329234e+18
9.5824517e+17
9.0002874e+17
8.5448618e+17
7.4649023e+17
7.2104419e+17
7.0108763e+17
6.8554177e+17
7.7219906e+17
7.4581887e+17
7.2513348e+17
7.0902956e+17
7.9627724e+17
7.6902676e+17
7.4766147e+17
7.3103594e+17
8.1875866e+17
7.9069631e+17
7.6869607e+17
7.5158283e+17
6.7364274e+17
6.6488488e+17
6.5898251e+17
6.5584697e+17
6.9671821e+17
6.8767678e+17
6.8160948e+17
6.7842382e+17
7.1833809e+17
7.0902947e+17
7.0280494e+17
6.9956846e+17
7.3852302e+17
7.2896356e+17
7.2259059e+17
7.1930482e+17
6.5557662e+17
6.584591e+17
6.6498534e+17
6.7587621e+17
6.7822043e+17
6.8129544e+17
6.8815514e+17
6.9954357e+17
6.9942281e+17
7.0267209e+17
7.0983694e+17
7.2168305e+17
7.19211e+17
7.2262065e+17
7.3006775e+17
7.4233811e+17
6.921232e+17
7.1504558e+17
7.4636772e+17
7.8832141e+17
7.1648472e+17
7.4034176e+17
7.7289718e+17
8.1645887e+17
7.3926472e+17
7.6398608e+17
7.976838e+17
8.427367e+17
7.6051423e+17
7.8603831e+17
8.2079741e+17
8.6723629e+17
0
0
0
0
0
0
0
0
0
0
0
0
0
0
0
0
0
0
0
0
0
0
0
0
0
0
0
0
0
0
0
0
0
0
0
0
0
0
0
0
0
0
0
0
0
0
0
0
0
0
0
0
0
0
0
0
0
0
0
0
0
0
0
0
0
0
0
0
0
0
0
0
0
0
0
0
0
0
0
0
0
0
0
0
0
0
0
0
0
0
0
0
0
0
0
0
0
0
0
0
0
0
0
0
0
0
0
0
0
0
0
0
0
0
0
0
0
0
0
0
0
0
0
0
0
0
0
0
0
0
0
0
0
0
0
0
0
0
0
0
0
0
0
0
0
0
0
0
0
0
0
0
0
0
0
0
0
0
0
0
0
0
0
0
0
0
0
0
0
0
0
0
0
0
0
0
0
0
0
0
0
0
0
0
0
0
0
0
0
0
0
0
0
0
0
0
0
0
0
0
0
0
0
0
0
0
0
0
0
0
0
0
0
0
0
0
0
0
0
0
0
0
0
0
0
0
0
0
0
0
0
0
0
0
0
0
0
0
0
0
1.0594757e+18
9.8287709e+17
9.2313802e+17
8.763867e+17
1.0841613e+18
1.0057799e+18
9.4462565e+17
8.9674957e+17
1.1070751e+18
1.0270405e+18
9.6457216e+17
9.1565054e+17
1.128311e+18
1.046745e+18
9.8305811e+17
9.3316582e+17
8.3970041e+17
8.1088063e+17
7.8828753e+17
7.7071853e+17
8.5917022e+17
8.2964431e+17
8.0649809e+17
7.8850367e+17
8.7724019e+17
8.4705666e+17
8.2339501e+17
8.0500402e+17
8.9398322e+17
8.6318809e+17
8.3904681e+17
8.202867e+17
7.5732022e+17
7.4752594e+17
7.4101376e+17
7.3768133e+17
7.7478929e+17
7.6477573e+17
7.5813358e+17
7.5475764e+17
7.9099499e+17
7.807771e+17
7.7401401e+17
7.7059787e+17
8.0600344e+17
7.9559552e+17
7.887202e+17
7.8526712e+17
7.3763524e+17
7.4119387e+17
7.4890353e+17
7.615687e+17
7.5475616e+17
7.5845385e+17
7.6640844e+17
7.7944163e+17
7.7063843e+17
7.744662e+17
7.8264943e+17
7.9602575e+17
7.8534741e+17
7.8929691e+17
7.9769354e+17
8.1138961e+17
7.8029803e+17
8.0656903e+17
8.423155e+17
8.9004344e+17
7.9868627e+17
8.2565259e+17
8.6231767e+17
9.1124425e+17
8.1575036e+17
8.433637e+17
8.8088292e+17
9.3092322e+17
8.3156091e+17
8.5977579e+17
8.9808836e+17
9.4916234e+17
0
0
0
0
0
0
0
0
0
0
0
0
0
0
0
0
0
0
0
0
0
0
0
0
0
0
0
0
0
0
0
0
0
0
0
0
0
0
0
0
0
0
0
0
0
0
0
0
0
0
0
0
0
0
0
0
0
0
0
0
0
0
0
0
0
0
0
0
0
0
0
0
0
0
0
0
0
0
0
0
0
0
0
0
0
0
0
0
0
0
0
0
0
0
0
0
0
0
0
0
0
0
0
0
0
0
0
0
0
0
0
0
0
0
0
0
0
0
0
0
0
0
0
0
0
0
0
0
0
0
0
0
0
0
0
0
0
0
0
0
0
0
0
0
0
0
0
0
0
0
0
0
0
0
0
0
0
0
0
0
0
0
0
0
0
0
0
0
0
0
0
0
0
0
0
0
0
0
0
0
0
0
0
0
0
0
0
0
0
0
0
0
0
0
0
0
0
0
0
0
0
0
0
0
0
0
0
0
0
0
0
0
0
0
0
0
0
0
0
0
0
0
0
0
0
0
0
0
0
0
0
0
0
0
0
0
0
0
0
0
1.1479604e+18
1.064978e+18
1.0001626e+18
9.493704e+17
1.1661114e+18
1.0818209e+18
1.015962e+18
9.6433692e+17
1.1828483e+18
1.0973516e+18
1.0305297e+18
9.7813502e+17
1.1982511e+18
1.1116444e+18
1.0439352e+18
9.9083093e+17
9.0947121e+17
8.7810812e+17
8.5352121e+17
8.3441807e+17
9.2377386e+17
8.9188424e+17
8.6688399e+17
8.4746263e+17
9.3695805e+17
9.0458117e+17
8.7919825e+17
8.5948223e+17
9.4908737e+17
9.162605e+17
8.9052403e+17
8.7053574e+17
8.1988003e+17
8.0929572e+17
8.0231645e+17
7.9882959e+17
8.326883e+17
8.2194054e+17
8.148652e+17
8.113475e+17
8.4448915e+17
8.3359023e+17
8.2642627e+17
8.2288048e+17
8.5534059e+17
8.4430214e+17
8.3705657e+17
8.3348526e+17
7.9894745e+17
8.0301078e+17
8.1160638e+17
8.2560004e+17
8.1150086e+17
8.1567047e+17
8.2445129e+17
8.3872151e+17
8.2306729e+17
8.2733595e+17
8.3628887e+17
8.5081561e+17
8.3370348e+17
8.3806421e+17
8.4717669e+17
8.6194087e+17
8.4618655e+17
8.7495993e+17
9.1400843e+17
9.6604049e+17
8.5969336e+17
8.8898451e+17
9.2871458e+17
9.8163322e+17
8.7214443e+17
9.0191469e+17
9.4227486e+17
9.9601249e+17
8.8359966e+17
9.1381235e+17
9.5475387e+17
1.0092465e+18
0
0
0
0
0
0
0
0
0
0
0
0
0
0
0
0
0
0
0
0
0
0
0
0
0
0
0
0
0
0
0
0
0
0
0
0
0
0
0
0
0
0
0
0
0
0
0
0
0
0
0
0
0
0
0
0
0
0
0
0
0
0
0
0
0
0
0
0
0
0
0
0
0
0
0
0
0
0
0
0
0
0
0
0
0
0
0
0
0
0
0
0
0
0
0
0
0
0
0
0
0
0
0
0
0
0
0
0
0
0
0
0
0
0
0
0
0
0
0
0
0
0
0
0
0
0
0
0
0
0
0
0
0
0
0
0
0
0
0
0
0
0
0
0
0
0
0
0
0
0
0
0
0
0
0
0
0
0
0
0
0
0
0
0
0
0
0
0
0
0
0
0
0
0
0
0
0
0
0
0
0
0
0
0
0
0
0
0
0
0
0
0
0
0
0
0
0
0
0
0
0
0
0
0
0
0
0
0
0
0
0
0
0
0
0
0
0
0
0
0
0
0
0
0
0
0
0
0
0
0
0
0
0
0
0
0
0
0
0
0
1.2123951e+18
1.1247692e+18
1.0562445e+18
1.0024872e+18
1.2253514e+18
1.1367918e+18
1.0675192e+18
1.0131627e+18
1.2371861e+18
1.1477736e+18
1.0778171e+18
1.0229123e+18
1.2479607e+18
1.1577716e+18
1.087192e+18
1.0317869e+18
9.6022195e+17
9.2698044e+17
9.0091806e+17
8.8067874e+17
9.7041821e+17
9.3679563e+17
9.104336e+17
8.8996344e+17
9.7972889e+17
9.4575712e+17
9.1912037e+17
8.9843857e+17
9.8820301e+17
9.5391233e+17
9.2702462e+17
9.0614942e+17
8.6529731e+17
8.5413036e+17
8.4680981e+17
8.4321531e+17
8.7441077e+17
8.6312576e+17
8.5573647e+17
8.5212095e+17
8.8272891e+17
8.7133575e+17
8.6388359e+17
8.6024907e+17
8.9029632e+17
8.7880442e+17
8.7129497e+17
8.6764327e+17
8.4346295e+17
8.4790905e+17
8.5716907e+17
8.7215247e+17
8.52396e+17
8.56921e+17
8.6631708e+17
8.8150233e+17
8.6054955e+17
8.6514723e+17
8.7466835e+17
8.9003887e+17
8.6796726e+17
8.7263161e+17
8.8226722e+17
8.9780719e+17
8.9411558e+17
9.2473588e+17
9.6621253e+17
1.0213996e+18
9.0374532e+17
9.3474017e+17
9.7670811e+17
1.0325324e+18
9.1253849e+17
9.4387646e+17
9.8629414e+17
1.0427013e+18
9.2054127e+17
9.5219246e+17
9.9502042e+17
1.0519589e+18
0
0
0
0
0
0
0
0
0
0
0
0
0
0
0
0
0
0
0
0
0
0
0
0
0
0
0
0
0
0
0
0
0
0
0
0
0
0
0
0
0
0
0
0
0
0
0
0
0
0
0
0
0
0
0
0
0
0
0
0
0
0
0
0
0
0
0
0
0
0
0
0
0
0
0
0
0
0
0
0
0
0
0
0
0
0
0
0
0
0
0
0
0
0
0
0
0
0
0
0
0
0
0
0
0
0
0
0
0
0
0
0
0
0
0
0
0
0
0
0
0
0
0
0
0
0
0
0
0
0
0
0
0
0
0
0
0
0
0
0
0
0
0
0
0
0
0
0
0
0
0
0
0
0
0
0
0
0
0
0
0
0
0
0
0
0
0
0
0
0
0
0
0
0
0
0
0
0
0
0
0
0
0
0
0
0
0
0
0
0
0
0
0
0
0
0
0
0
0
0
0
0
0
0
0
0
0
0
0
0
0
0
0
0
0
0
0
0
0
0
0
0
0
0
0
0
0
0
0
0
0
0
0
0
0
0
0
0
0
0
1.2577321e+18
1.1668387e+18
1.0956933e+18
1.0398339e+18
1.2665525e+18
1.1750232e+18
1.1033668e+18
1.0470965e+18
1.2744697e+18
1.1823696e+18
1.1102541e+18
1.0536144e+18
1.2815269e+18
1.1889181e+18
1.1163929e+18
1.0594234e+18
9.9588581e+17
9.6130507e+17
9.34189e+17
9.1313779e+17
1.0028189e+18
9.6797562e+17
9.4065275e+17
9.1944213e+17
1.0090404e+18
9.7396074e+17
9.4645167e+17
9.2509749e+17
1.0145847e+18
9.7929382e+17
9.5161828e+17
9.3013573e+17
8.9715418e+17
8.8557246e+17
8.7801098e+17
8.7434383e+17
9.0334031e+17
8.9167729e+17
8.8406877e+17
8.8038775e+17
9.0888923e+17
8.9715303e+17
8.8950223e+17
8.8580883e+17
9.1383229e+17
9.0203068e+17
8.9434212e+17
8.9063773e+17
8.7468941e+17
8.7941466e+17
8.8915465e+17
9.0484892e+17
8.8075306e+17
8.8553363e+17
8.9536831e+17
9.1120241e+17
8.8619203e+17
8.9102256e+17
9.0094262e+17
9.1690269e+17
8.9103705e+17
8.9591235e+17
9.0590885e+17
9.2198158e+17
9.2779635e+17
9.5973232e+17
1.002933e+18
1.060354e+18
9.3434302e+17
9.6653666e+17
1.0100744e+18
1.0679315e+18
9.4021717e+17
9.7264261e+17
1.0164834e+18
1.0747322e+18
9.4545147e+17
9.7808394e+17
1.0221952e+18
1.0807936e+18
0
0
0
0
0
0
0
0
0
0
0
0
0
0
0
0
0
0
0
0
0
0
0
0
0
0
0
0
0
0
0
0
0
0
0
0
0
0
0
0
0
0
0
0
0
0
0
0
0
0
0
0
0
0
0
0
0
0
0
0
0
0
0
0
0
0
0
0
0
0
0
0
0
0
0
0
0
0
0
0
0
0
0
0
0
0
0
0
0
0
0
0
0
0
0
0
0
0
0
0
0
0
0
0
0
0
0
0
0
0
0
0
0
0
0
0
0
0
0
0
0
0
0
0
0
0
0
0
0
0
0
0
0
0
0
0
0
0
0
0
0
0
0
0
0
0
0
0
0
0
0
0
0
0
0
0
0
0
0
0
0
0
0
0
0
0
0
0
0
0
0
0
0
0
0
0
0
0
0
0
0
0
0
0
0
0
0
0
0
0
0
0
0
0
0
0
0
0
0
0
0
0
0
0
0
0
0
0
0
0
0
0
0
0
0
0
0
0
0
0
0
0
0
0
0
0
0
0
0
0
0
0
0
0
0
0
0
0
0
0
1.2877633e+18
1.1947049e+18
1.1218174e+18
1.064556e+18
1.2932136e+18
1.1997622e+18
1.1265578e+18
1.0690411e+18
1.2979085e+18
1.2041186e+18
1.1306411e+18
1.072904e+18
1.3018747e+18
1.2077988e+18
1.1340904e+18
1.0761669e+18
1.0194829e+18
9.8400486e+17
9.5618178e+17
9.3458545e+17
1.0237626e+18
9.8812063e+17
9.6016827e+17
9.3847219e+17
1.0274483e+18
9.9166475e+17
9.6360069e+17
9.4181844e+17
1.0305612e+18
9.9465774e+17
9.6649904e+17
9.4464376e+17
9.1819764e+17
9.0633807e+17
8.986161e+17
8.9490204e+17
9.2201043e+17
9.1010008e+17
9.0234884e+17
8.9862637e+17
9.2529279e+17
9.1333857e+17
9.0556209e+17
9.0183239e+17
9.2806397e+17
9.1607258e+17
9.0827473e+17
9.0453896e+17
8.9531571e+17
9.002308e+17
9.1029511e+17
9.2646772e+17
8.990527e+17
9.0400272e+17
9.1412652e+17
9.3038669e+17
9.0226972e+17
9.0724999e+17
9.1742523e+17
9.3376105e+17
9.0498567e+17
9.0999163e+17
9.202105e+17
9.3661044e+17
9.5007529e+17
9.8289106e+17
1.0272417e+18
1.0861493e+18
9.5411489e+17
9.8709115e+17
1.0316513e+18
1.0908293e+18
9.5759339e+17
9.9070816e+17
1.0354489e+18
1.0948601e+18
9.6053099e+17
9.9376297e+17
1.0386566e+18
1.0982649e+18
0
0
0
0
0
0
0
0
0
0
0
0
0
0
0
0
0
0
0
0
0
0
0
0
0
0
0
0
0
0
0
0
0
0
0
0
0
0
0
0
0
0
0
0
0
0
0
0
0
0
0
0
0
0
0
0
0
0
0
0
0
0
0
0
0
0
0
0
0
0
0
0
0
0
0
0
0
0
0
0
0
0
0
0
0
0
0
0
0
0
0
0
0
0
0
0
0
0
0
0
0
0
0
0
0
0
0
0
0
0
0
0
0
0
0
0
0
0
0
0
0
0
0
0
0
0
0
0
0
0
0
0
0
0
0
0
0
0
0
0
0
0
0
0
0
0
0
0
0
0
0
0
0
0
0
0
0
0
0
0
0
0
0
0
0
0
0
0
0
0
0
0
0
0
0
0
0
0
0
0
0
0
0
0
0
0
0
0
0
0
0
0
0
0
0
0
0
0
0
0
0
0
0
0
0
0
0
0
0
0
0
0
0
0
0
0
0
0
0
0
0
0
0
0
0
0
0
0
0
0
0
0
0
0
0
0
0
0
0
0
1.3051349e+18
1.210824e+18
1.1369256e+18
1.0788487e+18
1.307708e+18
1.2132117e+18
1.1391633e+18
1.080965e+18
1.3096093e+18
1.2149761e+18
1.1408167e+18
1.0825285e+18
1.3108502e+18
1.2161278e+18
1.1418958e+18
1.0835487e+18
1.0331194e+18
9.9711707e+17
9.6888033e+17
9.4696481e+17
1.0351379e+18
9.990573e+17
9.7075873e+17
9.4879546e+17
1.0366288e+18
1.0004901e+18
9.7214555e+17
9.5014679e+17
1.0376013e+18
1.0014242e+18
9.7304939e+17
9.510272e+17
9.3034036e+17
9.1831833e+17
9.1050289e+17
9.0676215e+17
9.3213561e+17
9.2008931e+17
9.1225995e+17
9.0851532e+17
9.3346063e+17
9.2139631e+17
9.1355664e+17
9.0980917e+17
9.3432369e+17
9.2224749e+17
9.1440107e+17
9.106518e+17
9.0721663e+17
9.1224383e+17
9.2249874e+17
9.3895157e+17
9.0897603e+17
9.1402012e+17
9.2430363e+17
9.407984e+17
9.1027458e+17
9.1533129e+17
9.2563611e+17
9.4216208e+17
9.1112039e+17
9.1618553e+17
9.2650449e+17
9.4305109e+17
9.6294482e+17
9.9627337e+17
1.0412928e+18
1.1010633e+18
9.6484925e+17
9.9825421e+17
1.0433731e+18
1.1032717e+18
9.6625571e+17
9.9971735e+17
1.0449099e+18
1.1049034e+18
9.6717292e+17
1.0006718e+18
1.0459127e+18
1.1059683e+18
0
0
0
0
0
0
0
0
0
0
0
0
0
0
0
0
0
0
0
0
0
0
0
0
0
0
0
0
0
0
0
0
0
0
0
0
0
0
0
0
0
0
0
0
0
0
0
0
0
0
0
0
0
0
0
0
0
0
0
0
0
0
0
0
0
0
0
0
0
0
0
0
0
0
0
0
0
0
0
0
0
0
0
0
0
0
0
0
0
0
0
0
0
0
0
0
0
0
0
0
0
0
0
0
0
0
0
0
0
0
0
0
0
0
0
0
0
0
0
0
0
0
0
0
0
0
0
0
0
0
0
0
0
0
0
0
0
0
0
0
0
0
0
0
0
0
0
0
0
0
0
0
0
0
0
0
0
0
0
0
0
0
0
0
0
0
0
0
0
0
0
0
0
0
0
0
0
0
0
0
0
0
0
0
0
0
0
0
0
0
0
0
0
0
0
0
0
0
0
0
0
0
0
0
0
0
0
0
0
0
0
0
0
0
0
0
0
0
0
0
0
0
0
0
0
0
0
0
0
0
0
0
0
0
0
0
0
0
0
0
1.3114386e+18
1.2166741e+18
1.1424075e+18
1.084032e+18
1.3113787e+18
1.2166189e+18
1.1423555e+18
1.083982e+18
1.3106711e+18
1.215963e+18
1.1417404e+18
1.0833993e+18
1.3093131e+18
1.2147035e+18
1.1405596e+18
1.0822815e+18
1.0380615e+18
1.0018658e+18
9.7347609e+17
9.5144241e+17
1.0380128e+18
1.0018179e+18
9.7342881e+17
9.5139552e+17
1.0374558e+18
1.0012812e+18
9.7290802e+17
9.5088698e+17
1.0363881e+18
1.0002535e+18
9.7191155e+17
9.4991465e+17
9.347304e+17
9.2264842e+17
9.1479876e+17
9.1104871e+17
9.346838e+17
9.226021e+17
9.147527e+17
9.1100289e+17
9.3418436e+17
9.2210897e+17
9.1426333e+17
9.1051479e+17
9.3322997e+17
9.2116697e+17
9.1332859e+17
9.0958236e+17
9.1151899e+17
9.1658839e+17
9.269144e+17
9.4347117e+17
9.1147339e+17
9.1654292e+17
9.2686894e+17
9.4342549e+17
9.1098402e+17
9.1604956e+17
9.2636854e+17
9.4291451e+17
9.1004884e+17
9.1510627e+17
9.2541117e+17
9.4193614e+17
9.6760678e+17
1.0011238e+18
1.046388e+18
1.1064732e+18
9.6756056e+17
1.0010766e+18
1.0463391e+18
1.1064219e+18
9.6703476e+17
1.0005307e+18
1.0457668e+18
1.105815e+18
9.660272e+17
9.9948402e+17
1.0446687e+18
1.10465e+18
0
0
0
0
0
0
0
0
0
0
0
0
0
0
0
0
0
0
0
0
0
0
0
0
0
0
0
0
0
0
0
0
0
0
0
0
0
0
0
0
0
0
0
0
0
0
0
0
0
0
0
0
0
0
0
0
0
0
0
0
0
0
0
0
0
0
0
0
0
0
0
0
0
0
0
0
0
0
0
0
0
0
0
0
0
0
0
0
0
0
0
0
0
0
0
0
0
0
0
0
0
0
0
0
0
0
0
0
0
0
0
0
0
0
0
0
0
0
0
0
0
0
0
0
0
0
0
0
0
0
0
0
0
0
0
0
0
0
0
0
0
0
0
0
0
0
0
0
0
0
0
0
0
0
0
0
0
0
0
0
0
0
0
0
0
0
0
0
0
0
0
0
0
0
0
0
0
0
0
0
0
0
0
0
0
0
0
0
0
0
0
0
0
0
0
0
0
0
0
0
0
0
0
0
0
0
0
0
0
0
0
0
0
0
0
0
0
0
0
0
0
0
0
0
0
0
0
0
0
0
0
0
0
0
0
0
0
0
0
0
1.3072981e+18
1.2128346e+18
1.1388076e+18
1.0806231e+18
1.3046162e+18
1.2103469e+18
1.1364757e+18
1.078416e+18
1.3012539e+18
1.207228e+18
1.133552e+18
1.075649e+18
1.297194e+18
1.2034619e+18
1.1300215e+18
1.0723077e+18
1.0348047e+18
9.9872962e+17
9.7043459e+17
9.4847381e+17
1.0326976e+18
9.9670203e+17
9.6846962e+17
9.4655711e+17
1.0300559e+18
9.9416028e+17
9.6600649e+17
9.441546e+17
1.0268662e+18
9.9109113e+17
9.6303232e+17
9.4125366e+17
9.3181595e+17
9.1977147e+17
9.119439e+17
9.0820101e+17
9.2993509e+17
9.1791532e+17
9.1010216e+17
9.0636368e+17
9.2757757e+17
9.1558883e+17
9.0779372e+17
9.0406076e+17
9.2473098e+17
9.1277971e+17
9.0500641e+17
9.0128009e+17
9.0866328e+17
9.1370844e+17
9.2399214e+17
9.4048566e+17
9.0682024e+17
9.1184894e+17
9.2210426e+17
9.385557e+17
9.045101e+17
9.0951808e+17
9.1973774e+17
9.3613632e+17
9.0172069e+17
9.0670363e+17
9.1688016e+17
9.3321488e+17
9.6453308e+17
9.9793149e+17
1.0430395e+18
1.1029215e+18
9.6254483e+17
9.9586529e+17
1.0408712e+18
1.1006207e+18
9.6005225e+17
9.9327489e+17
1.0381526e+18
1.0977361e+18
9.5704238e+17
9.9014687e+17
1.0348698e+18
1.0942527e+18
0
0
0
0
0
0
0
0
0
0
0
0
0
0
0
0
0
0
0
0
0
0
0
0
0
0
0
0
0
0
0
0
0
0
0
0
0
0
0
0
0
0
0
0
0
0
0
0
0
0
0
0
0
0
0
0
0
0
0
0
0
0
0
0
0
0
0
0
0
0
0
0
0
0
0
0
0
0
0
0
0
0
0
0
0
0
0
0
0
0
0
0
0
0
0
0
0
0
0
0
0
0
0
0
0
0
0
0
0
0
0
0
0
0
0
0
0
0
0
0
0
0
0
0
0
0
0
0
0
0
0
0
0
0
0
0
0
0
0
0
0
0
0
0
0
0
0
0
0
0
0
0
0
0
0
0
0
0
0
0
0
0
0
0
0
0
0
0
0
0
0
0
0
0
0
0
0
0
0
0
0
0
0
0
0
0
0
0
0
0
0
0
0
0
0
0
0
0
0
0
0
0
0
0
0
0
0
0
0
0
0
0
0
0
0
0
0
0
0
0
0
0
0
0
0
0
0
0
0
0
0
0
0
0
0
0
0
0
0
0
1.2924157e+18
1.1990293e+18
1.1258662e+18
1.068375e+18
1.2868946e+18
1.1939075e+18
1.1210648e+18
1.0638305e+18
1.2806025e+18
1.1880704e+18
1.1155926e+18
1.058651e+18
1.2735075e+18
1.1814884e+18
1.1094217e+18
1.0528099e+18
1.0231117e+18
9.874786e+17
9.5953153e+17
9.3783902e+17
1.0187731e+18
9.8330384e+17
9.5548576e+17
9.338927e+17
1.0138278e+18
9.7854514e+17
9.5087386e+17
9.2939397e+17
1.0082506e+18
9.7317788e+17
9.4567185e+17
9.2431932e+17
9.2138029e+17
9.0947309e+17
9.0172544e+17
8.9800692e+17
9.1750777e+17
9.0565147e+17
8.9793343e+17
8.9422394e+17
9.1309304e+17
9.0129464e+17
8.9361033e+17
8.8991113e+17
9.0811293e+17
8.9637973e+17
8.8873339e+17
8.8504582e+17
8.9843725e+17
9.0339072e+17
9.1351652e+17
9.2977609e+17
8.9464242e+17
8.9956187e+17
9.0962913e+17
9.2580194e+17
8.9031616e+17
8.9519694e+17
9.0519759e+17
9.2127169e+17
8.8543577e+17
8.9027309e+17
9.0019881e+17
9.161618e+17
9.5349955e+17
9.8646499e+17
1.0310057e+18
1.0901527e+18
9.4940527e+17
9.8221016e+17
1.0265405e+18
1.085415e+18
9.4473827e+17
9.7736036e+17
1.0214511e+18
1.0800152e+18
9.3947442e+17
9.7189061e+17
1.0157115e+18
1.0739256e+18
0
0
0
0
0
0
0
0
0
0
0
0
0
0
0
0
0
0
0
0
0
0
0
0
0
0
0
0
0
0
0
0
0
0
0
0
0
0
0
0
0
0
0
0
0
0
0
0
0
0
0
0
0
0
0
0
0
0
0
0
0
0
0
0
0
0
0
0
0
0
0
0
0
0
0
0
0
0
0
0
0
0
0
0
0
0
0
0
0
0
0
0
0
0
0
0
0
0
0
0
0
0
0
0
0
0
0
0
0
0
0
0
0
0
0
0
0
0
0
0
0
0
0
0
0
0
0
0
0
0
0
0
0
0
0
0
0
0
0
0
0
0
0
0
0
0
0
0
0
0
0
0
0
0
0
0
0
0
0
0
0
0
0
0
0
0
0
0
0
0
0
0
0
0
0
0
0
0
0
0
0
0
0
0
0
0
0
0
0
0
0
0
0
0
0
0
0
0
0
0
0
0
0
0
0
0
0
0
0
0
0
0
0
0
0
0
0
0
0
0
0
0
0
0
0
0
0
0
0
0
0
0
0
0
0
0
0
0
0
0
1.2655739e+18
1.1741283e+18
1.1025211e+18
1.0462775e+18
1.2567621e+18
1.1659534e+18
1.0948561e+18
1.039021e+18
1.2470287e+18
1.1569233e+18
1.0863888e+18
1.0310043e+18
1.2363264e+18
1.1469942e+18
1.0770779e+18
1.0221881e+18
1.0020128e+18
9.671745e+17
9.3985284e+17
9.1864242e+17
9.9508298e+17
9.6050441e+17
9.3338706e+17
9.1233407e+17
9.8742638e+17
9.5313405e+17
9.2624175e+17
9.0536215e+17
9.7900524e+17
9.4502681e+17
9.1838122e+17
8.9769166e+17
9.025415e+17
8.9088105e+17
8.8327712e+17
8.7960259e+17
8.9635e+17
8.8477017e+17
8.7721328e+17
8.7355328e+17
8.8950678e+17
8.7801577e+17
8.7051075e+17
8.6686684e+17
8.8197736e+17
8.7058373e+17
8.6313564e+17
8.5950948e+17
8.7997578e+17
8.8476468e+17
8.9460687e+17
9.1044591e+17
8.7390799e+17
8.7864335e+17
8.8839305e+17
9.0409479e+17
8.6720134e+17
8.7187784e+17
8.8152579e+17
8.9707631e+17
8.5982195e+17
8.6443409e+17
8.7397059e+17
8.893554e+17
9.3358669e+17
9.6577297e+17
1.0092923e+18
1.0671155e+18
9.2704511e+17
9.5897645e+17
1.0021613e+18
1.0595506e+18
9.1981675e+17
9.5146699e+17
9.9428286e+17
1.0511933e+18
9.1186565e+17
9.4320742e+17
9.8561814e+17
1.0420026e+18
0
0
0
0
0
0
0
0
0
0
0
0
0
0
0
0
0
0
0
0
0
0
0
0
0
0
0
0
0
0
0
0
0
0
0
0
0
0
0
0
0
0
0
0
0
0
0
0
0
0
0
0
0
0
0
0
0
0
0
0
0
0
0
0
0
0
0
0
0
0
0
0
0
0
0
0
0
0
0
0
0
0
0
0
0
0
0
0
0
0
0
0
0
0
0
0
0
0
0
0
0
0
0
0
0
0
0
0
0
0
0
0
0
0
0
0
0
0
0
0
0
0
0
0
0
0
0
0
0
0
0
0
0
0
0
0
0
0
0
0
0
0
0
0
0
0
0
0
0
0
0
0
0
0
0
0
0
0
0
0
0
0
0
0
0
0
0
0
0
0
0
0
0
0
0
0
0
0
0
0
0
0
0
0
0
0
0
0
0
0
0
0
0
0
0
0
0
0
0
0
0
0
0
0
0
0
0
0
0
0
0
0
0
0
0
0
0
0
0
0
0
0
0
0
0
0
0
0
0
0
0
0
0
0
0
0
0
0
0
0
1.224604e+18
1.1361186e+18
1.0668788e+18
1.0125298e+18
1.2118068e+18
1.1242454e+18
1.0557433e+18
1.0019836e+18
1.1978759e+18
1.1113203e+18
1.0436201e+18
9.9050066e+17
1.1827494e+18
1.0972853e+18
1.0304549e+18
9.7802906e+17
9.6977862e+17
9.36143e+17
9.0976674e+17
8.8928461e+17
9.5970251e+17
9.2643995e+17
9.0035667e+17
8.8010011e+17
9.4872985e+17
9.15872e+17
8.9010639e+17
8.7009435e+17
9.3681063e+17
9.0439059e+17
8.7896845e+17
8.5922071e+17
8.7372426e+17
8.6243697e+17
8.550511e+17
8.5144445e+17
8.647072e+17
8.5353558e+17
8.4621746e+17
8.4263217e+17
8.5488294e+17
8.4383673e+17
8.3659215e+17
8.3303016e+17
8.4420544e+17
8.332948e+17
8.2612978e+17
8.2259311e+17
8.5173305e+17
8.5627509e+17
8.6569006e+17
8.8089399e+17
8.4289498e+17
8.4736096e+17
8.5664389e+17
8.7165108e+17
8.3326519e+17
8.3764888e+17
8.4678875e+17
8.6158261e+17
8.2279827e+17
8.2709315e+17
8.3607845e+17
8.5064154e+17
9.0315282e+17
9.3415742e+17
9.7612504e+17
1.0319339e+18
8.9363622e+17
9.2427355e+17
9.657582e+17
1.0209394e+18
8.8327071e+17
9.1350913e+17
9.5446887e+17
1.0089674e+18
8.7200809e+17
9.0181437e+17
9.4220506e+17
9.9596316e+17
0
0
0
0
0
0
0
0
0
0
0
0
0
0
0
0
0
0
0
0
0
0
0
0
0
0
0
0
0
0
0
0
0
0
0
0
0
0
0
0
0
0
0
0
0
0
0
0
0
0
0
0
0
0
0
0
0
0
0
0
0
0
0
0
0
0
0
0
0
0
0
0
0
0
0
0
0
0
0
0
0
0
0
0
0
0
0
0
0
0
0
0
0
0
0
0
0
0
0
0
0
0
0
0
0
0
0
0
0
0
0
0
0
0
0
0
0
0
0
0
0
0
0
0
0
0
0
0
0
0
0
0
0
0
0
0
0
0
0
0
0
0
0
0
0
0
0
0
0
0
0
0
0
0
0
0
0
0
0
0
0
0
0
0
0
0
0
0
0
0
0
0
0
0
0
0
0
0
0
0
0
0
0
0
0
0
0
0
0
0
0
0
0
0
0
0
0
0
0
0
0
0
0
0
0
0
0
0
0
0
0
0
0
0
0
0
0
0
0
0
0
0
0
0
0
0
0
0
0
0
0
0
0
0
0
0
0
0
0
0
1.1663617e+18
1.0820798e+18
1.0161903e+18
9.6451407e+17
1.1486447e+18
1.0656402e+18
1.0007663e+18
9.4989837e+17
1.1295277e+18
1.0479008e+18
9.8412082e+17
9.3412248e+17
1.1089384e+18
1.0287941e+18
9.6618994e+17
9.1712519e+17
9.2389209e+17
8.9194443e+17
8.6689267e+17
8.474298e+17
9.0991891e+17
8.7847969e+17
8.5382629e+17
8.3466967e+17
8.9483357e+17
8.6394028e+17
8.3971429e+17
8.2088605e+17
8.7857678e+17
8.4826829e+17
8.2449971e+17
8.0602261e+17
8.3262591e+17
8.218614e+17
8.1478218e+17
8.1127289e+17
8.2009296e+17
8.0948549e+17
8.0249849e+17
7.9901867e+17
8.0655281e+17
7.9611358e+17
7.8922535e+17
7.8577702e+17
7.9194954e+17
7.8168996e+17
7.7490707e+17
7.714921e+17
8.1144597e+17
8.156452e+17
8.2446381e+17
8.3877785e+17
7.9915729e+17
8.0325365e+17
8.1189283e+17
8.2593859e+17
7.8587856e+17
7.8986435e+17
7.9831065e+17
8.1206785e+17
7.7155358e+17
7.7542056e+17
7.836597e+17
7.9710688e+17
8.5979709e+17
8.8913623e+17
9.2891137e+17
9.8186799e+17
8.465834e+17
8.7541855e+17
9.1452913e+17
9.6661992e+17
8.3230964e+17
8.6060197e+17
8.989963e+17
9.5015332e+17
8.1691548e+17
8.4462398e+17
8.8224747e+17
9.3239899e+17
0
0
0
0
0
0
0
0
0
0
0
0
0
0
0
0
0
0
0
0
0
0
0
0
0
0
0
0
0
0
0
0
0
0
0
0
0
0
0
0
0
0
0
0
0
0
0
0
0
0
0
0
0
0
0
0
0
0
0
0
0
0
0
0
0
0
0
0
0
0
0
0
0
0
0
0
0
0
0
0
0
0
0
0
0
0
0
0
0
0
0
0
0
0
0
0
0
0
0
0
0
0
0
0
0
0
0
0
0
0
0
0
0
0
0
0
0
0
0
0
0
0
0
0
0
0
0
0
0
0
0
0
0
0
0
0
0
0
0
0
0
0
0
0
0
0
0
0
0
0
0
0
0
0
0
0
0
0
0
0
0
0
0
0
0
0
0
0
0
0
0
0
0
0
0
0
0
0
0
0
0
0
0
0
0
0
0
0
0
0
0
0
0
0
0
0
0
0
0
0
0
0
0
0
0
0
0
0
0
0
0
0
0
0
0
0
0
0
0
0
0
0
0
0
0
0
0
0
0
0
0
0
0
0
0
0
0
0
0
0
1.0868038e+18
1.0082519e+18
9.46909e+17
8.9884432e+17
1.0630513e+18
9.8620637e+17
9.2621346e+17
8.7921763e+17
1.0376108e+18
9.6259162e+17
9.0404029e+17
8.5818398e+17
1.0104165e+18
9.3734554e+17
8.803298e+17
8.3568504e+17
8.6108812e+17
8.3140452e+17
8.0812416e+17
7.9002145e+17
8.4230687e+17
8.132892e+17
7.9052842e+17
7.7282361e+17
8.2217309e+17
7.9386304e+17
7.7165341e+17
7.543699e+17
8.0062907e+17
7.7306841e+17
7.5144121e+17
7.3460181e+17
7.7622549e+17
7.66157e+17
7.5948588e+17
7.5610583e+17
7.5932172e+17
7.4945558e+17
7.4290229e+17
7.3955819e+17
7.4117868e+17
7.3152564e+17
7.2509555e+17
7.2178755e+17
7.2173705e+17
7.1230681e+17
7.0600412e+17
7.0273106e+17
7.5612378e+17
7.5986299e+17
7.6787968e+17
7.8099406e+17
7.3952843e+17
7.4312997e+17
7.5090773e+17
7.6366495e+17
7.2170486e+17
7.2515755e+17
7.3267837e+17
7.4505218e+17
7.0258869e+17
7.0587966e+17
7.131235e+17
7.2508531e+17
8.003375e+17
8.274188e+17
8.6421376e+17
9.1328395e+17
7.8250925e+17
8.0891736e+17
8.448227e+17
8.9273133e+17
7.6336098e+17
7.8904694e+17
8.2399777e+17
8.7065976e+17
7.4281943e+17
7.6773081e+17
8.0165796e+17
8.4698285e+17
0
0
0
0
0
0
0
0
0
0
0
0
0
0
0
0
0
0
0
0
0
0
0
0
0
0
0
0
0
0
0
0
0
0
0
0
0
0
0
0
0
0
0
0
0
0
0
0
0
0
0
0
0
0
0
0
0
0
0
0
0
0
0
0
0
0
0
0
0
0
0
0
0
0
0
0
0
0
0
0
0
0
0
0
0
0
0
0
0
0
0
0
0
0
0
0
0
0
0
0
0
0
0
0
0
0
0
0
0
0
0
0
0
0
0
0
0
0
0
0
0
0
0
0
0
0
0
0
0
0
0
0
0
0
0
0
0
0
0
0
0
0
0
0
0
0
0
0
0
0
0
0
0
0
0
0
0
0
0
0
0
0
0
0
0
0
0
0
0
0
0
0
0
0
0
0
0
0
0
0
0
0
0
0
0
0
0
0
0
0
0
0
0
0
0
0
0
0
0
0
0
0
0
0
0
0
0
0
0
0
0
0
0
0
0
0
0
0
0
0
0
0
0
0
0
0
0
0
0
0
0
0
0
0
0
0
0
0
0
0
9.8141004e+17
9.1041258e+17
8.5502795e+17
8.1166742e+17
9.505443e+17
8.8174724e+17
8.2808967e+17
7.8608551e+17
9.1778852e+17
8.5131864e+17
7.994829e+17
7.5890534e+17
8.8313495e+17
8.1911659e+17
7.6919424e+17
7.3010965e+17
7.7762131e+17
7.5085119e+17
7.2983667e+17
7.1346288e+17
7.5310307e+17
7.27163e+17
7.0678939e+17
6.9090041e+17
7.2703783e+17
7.019643e+17
6.8225649e+17
6.6686783e+17
6.9940395e+17
6.7522865e+17
6.562063e+17
6.4132798e+17
7.0093882e+17
6.917394e+17
6.8556642e+17
6.823251e+17
6.7872877e+17
6.6976546e+17
6.6372164e+17
6.6050581e+17
6.5505644e+17
6.4633041e+17
6.4041087e+17
6.372098e+17
6.2987881e+17
6.2138511e+17
6.1557862e+17
6.1237492e+17
6.821141e+17
6.8522804e+17
6.921722e+17
7.0369037e+17
6.6021404e+17
6.6313221e+17
6.697503e+17
6.8078913e+17
6.3682039e+17
6.3951915e+17
6.4577955e+17
6.5629775e+17
6.118641e+17
6.1431258e+17
6.2017613e+17
6.301245e+17
7.2080711e+17
7.4488733e+17
7.7771662e+17
8.2160784e+17
6.9724127e+17
7.2042856e+17
7.5207978e+17
7.9443357e+17
6.7203199e+17
6.9425788e+17
7.2464323e+17
7.6534706e+17
6.4507909e+17
6.6626601e+17
6.952877e+17
7.3421789e+17
0
0
0
0
0
0
0
0
0
0
0
0
0
0
0
0
0
0
0
0
0
0
0
0
0
0
0
0
0
0
0
0
0
0
0
0
0
0
0
0
0
0
0
0
0
0
0
0
0
0
0
0
0
0
0
0
0
0
0
0
0
0
0
0
0
0
0
0
0
0
0
0
0
0
0
0
0
0
0
0
0
0
0
0
0
0
0
0
0
0
0
0
0
0
0
0
0
0
0
0
0
0
0
0
0
0
0
0
0
0
0
0
0
0
0
0
0
0
0
0
0
0
0
0
0
0
0
0
0
0
0
0
0
0
0
0
0
0
0
0
0
0
0
0
0
0
0
0
0
0
0
0
0
0
0
0
0
0
0
0
0
0
0
0
0
0
0
0
0
0
0
0
0
0
0