/*--------------------------------*- C++ -*----------------------------------*\
| =========                 |                                                 |
| \\      /  F ield         | OpenFOAM: The Open Source CFD Toolbox           |
|  \\    /   O peration     | Version:  1.4.1-dev                             |
|   \\  /    A nd           | Web:      http://www.openfoam.org               |
|    \\/     M anipulation  |                                                 |
\*---------------------------------------------------------------------------*/

FoamFile
{
    version 2.0;
    format ascii;

    root "/home/cliffoi/OpenFOAM/cliffoi-1.4.1-dev/run/diffusionFoam";
    case "oecd_simplified_2G";
    instance "0";
    local "";

    class volScalarField;
    object Buckling1;
}

// * * * * * * * * * * * * * * * * * * * * * * * * * * * * * * * * * * * * * //

dimensions      [0 -1 0 0 0 0 0];

internalField   nonuniform List<scalar> 
9280
(
0.6368333
0.63683337
0.63683338
0.63683341
0.63683336
0.6368335
0.63683364
0.63683357
0.63683335
0.63683336
0.63683348
0.63683343
0.63683339
0.63683347
0.63683356
0.63683354
0.63683333
0.63683335
0.63683335
0.63683338
0.63683339
0.63683344
0.63683342
0.63683342
0.63683335
0.63683339
0.63683339
0.63683339
0.63683338
0.63683342
0.63683341
0.63683342
0.63683338
0.63683339
0.63683337
0.63683331
0.63683341
0.63683342
0.63683346
0.63683361
0.63683338
0.63683338
0.63683331
0.63683322
0.63683341
0.63683345
0.63683348
0.63683354
0.63683217
0.63683203
0.63683208
0.63683214
0.63683551
0.6368346
0.63683452
0.63683453
0.63683301
0.63683308
0.63683304
0.63683301
0.63683443
0.63683392
0.63683385
0.63683382
0.63683265
0.63683247
0.63683255
0.6368326
0.63683403
0.63683419
0.63683416
0.63683412
0.6368332
0.63683316
0.63683323
0.63683325
0.63683364
0.63683374
0.63683368
0.6368337
0.63683237
0.63683265
0.63683273
0.63683284
0.63683444
0.63683415
0.63683409
0.63683398
0.63683327
0.63683327
0.63683338
0.63683339
0.63683387
0.63683372
0.63683368
0.63683368
0.63683317
0.63683319
0.63683325
0.63683332
0.63683358
0.6368337
0.63683365
0.63683364
0.63683334
0.63683342
0.63683343
0.63683347
0.63683347
0.63683357
0.63683353
0.63683354
0.63683334
0.63683338
0.63683339
0.63683343
0.63683361
0.63683363
0.63683361
0.63683358
0.63683346
0.63683348
0.63683349
0.63683349
0.63683353
0.63683355
0.63683356
0.63683355
0.63683344
0.63683342
0.63683344
0.63683345
0.6368336
0.6368336
0.6368336
0.63683359
0.63683348
0.63683349
0.63683351
0.63683348
0.63683355
0.63683353
0.63683354
0.63683356
0.63683345
0.63683343
0.63683339
0.63683333
0.63683363
0.63683363
0.63683366
0.63683372
0.63683348
0.63683345
0.63683342
0.63683338
0.63683359
0.63683359
0.63683361
0.63683364
0.63683323
0.63683308
0.63683282
0.63683246
0.63683381
0.63683396
0.63683412
0.63683443
0.6368333
0.63683325
0.63683312
0.63683296
0.63683364
0.63683369
0.63683376
0.63683387
0.63682999
0.63683058
0.6368304
0.63683026
0.63683636
0.63683547
0.63683557
0.63683561
0.63683245
0.6368326
0.63683248
0.63683257
0.63683449
0.63683406
0.6368341
0.63683412
0.63683119
0.63683037
0.63683006
0.6368297
0.63683497
0.63683555
0.6368357
0.63683596
0.63683264
0.63683249
0.63683242
0.63683223
0.63683393
0.63683405
0.63683411
0.63683416
0.63682621
0.63682818
0.63682815
0.63682824
0.63683799
0.63683676
0.63683666
0.63683654
0.63683162
0.63683201
0.63683201
0.63683211
0.6368346
0.6368343
0.63683429
0.63683418
0.636831
0.6368296
0.63682958
0.63682952
0.63683499
0.6368358
0.63683584
0.63683578
0.63683262
0.63683237
0.63683238
0.6368324
0.63683385
0.63683404
0.63683406
0.63683402
0.63683068
0.63683016
0.6368299
0.6368295
0.63683511
0.63683548
0.63683566
0.63683595
0.63683261
0.63683249
0.63683235
0.63683219
0.63683385
0.63683399
0.63683403
0.63683413
0.6368284
0.63682788
0.63682709
0.63682611
0.63683657
0.63683686
0.63683732
0.63683799
0.63683188
0.63683169
0.6368314
0.63683098
0.63683431
0.63683441
0.63683457
0.63683477
0.63682303
0.63682247
0.63682099
0.63681929
0.63683965
0.63683994
0.63684073
0.63684175
0.63683019
0.63682995
0.6368295
0.63682896
0.6368352
0.63683532
0.63683551
0.63683583
0.63681445
0.63681367
0.63681066
0.63680628
0.63684413
0.63684455
0.63684597
0.63684878
0.63682779
0.63682752
0.63682684
0.63682535
0.63683642
0.63683654
0.63683685
0.63683762
0.63674793
0.63679115
0.63678744
0.63678148
0.63687431
0.63685538
0.63685626
0.63685433
0.63681407
0.63682229
0.63682203
0.63682432
0.63684345
0.63683916
0.63683908
0.63683785
0.63683339
0.6368334
0.63683345
0.63683353
0.63683339
0.63683345
0.63683348
0.63683352
0.63683334
0.63683345
0.63683348
0.63683349
0.63683337
0.63683344
0.63683349
0.63683349
0.63683336
0.6368334
0.6368334
0.6368334
0.63683338
0.6368334
0.63683341
0.63683341
0.63683337
0.63683339
0.63683339
0.63683338
0.63683338
0.6368334
0.6368334
0.6368334
0.63683337
0.63683337
0.63683335
0.63683334
0.63683341
0.63683342
0.63683342
0.63683344
0.63683338
0.63683338
0.63683338
0.63683339
0.6368334
0.6368334
0.6368334
0.6368334
0.63683372
0.63683346
0.63683348
0.63683357
0.6368341
0.63683358
0.63683369
0.63683359
0.63683383
0.63683358
0.63683358
0.63683356
0.63683385
0.63683354
0.63683358
0.63683355
0.63683336
0.63683351
0.6368335
0.63683349
0.63683353
0.63683355
0.63683359
0.63683355
0.63683348
0.63683354
0.63683355
0.63683355
0.63683345
0.63683351
0.63683353
0.63683353
0.63683362
0.63683359
0.63683357
0.63683358
0.63683368
0.63683359
0.63683359
0.63683351
0.63683367
0.63683363
0.63683367
0.63683362
0.63683362
0.63683354
0.63683356
0.63683359
0.63683342
0.63683351
0.6368335
0.63683352
0.63683343
0.63683353
0.63683351
0.63683352
0.63683341
0.63683352
0.63683351
0.63683351
0.63683342
0.6368335
0.6368335
0.63683348
0.63683351
0.63683351
0.63683351
0.6368335
0.63683352
0.63683352
0.63683355
0.63683355
0.63683352
0.63683349
0.6368335
0.63683349
0.63683355
0.63683354
0.63683357
0.63683355
0.63683351
0.63683351
0.63683351
0.63683351
0.63683355
0.63683356
0.63683354
0.63683356
0.63683351
0.63683354
0.63683352
0.63683356
0.63683349
0.63683352
0.63683349
0.63683349
0.63683352
0.63683352
0.63683352
0.63683352
0.63683352
0.63683353
0.63683354
0.63683357
0.63683355
0.63683354
0.63683351
0.63683353
0.63683352
0.63683355
0.63683357
0.63683353
0.6368335
0.63683349
0.63683344
0.63683342
0.63683355
0.63683357
0.6368336
0.63683363
0.63683352
0.63683354
0.63683351
0.63683355
0.63683353
0.63683354
0.63683353
0.63683351
0.63683364
0.63683349
0.63683337
0.63683347
0.6368339
0.63683367
0.63683367
0.63683361
0.63683392
0.63683369
0.6368337
0.63683372
0.63683371
0.63683346
0.63683349
0.63683339
0.63683339
0.63683344
0.63683345
0.63683345
0.63683353
0.63683358
0.63683355
0.63683355
0.63683359
0.6368337
0.63683372
0.63683377
0.63683339
0.63683341
0.63683335
0.63683331
0.63683362
0.63683349
0.63683348
0.63683352
0.63683362
0.63683351
0.63683349
0.63683343
0.63683418
0.63683395
0.63683395
0.63683396
0.6368332
0.63683317
0.63683316
0.63683317
0.63683337
0.63683349
0.63683349
0.6368335
0.6368334
0.63683343
0.63683345
0.63683342
0.63683363
0.63683381
0.63683383
0.63683382
0.63683325
0.63683326
0.63683323
0.63683328
0.63683341
0.63683344
0.6368334
0.63683334
0.6368334
0.63683346
0.63683348
0.63683348
0.63683364
0.63683371
0.63683371
0.6368337
0.63683327
0.63683328
0.6368333
0.63683331
0.6368333
0.63683324
0.63683317
0.63683309
0.63683351
0.63683354
0.63683356
0.63683364
0.63683371
0.63683366
0.63683364
0.63683358
0.63683335
0.63683335
0.63683336
0.63683342
0.63683292
0.63683282
0.63683269
0.63683255
0.63683375
0.63683377
0.63683387
0.63683397
0.63683362
0.6368335
0.63683346
0.63683345
0.63683345
0.63683347
0.63683348
0.63683354
0.6368323
0.63683225
0.63683208
0.63683174
0.63683408
0.6368341
0.63683417
0.63683435
0.6368334
0.6368334
0.63683336
0.63683329
0.63683354
0.63683357
0.63683358
0.63683362
0.63682987
0.6368312
0.63683114
0.63683186
0.63683565
0.63683464
0.63683469
0.63683428
0.63683353
0.63683315
0.63683328
0.63683352
0.63683405
0.63683369
0.63683367
0.63683356
0.63683339
0.63683342
0.63683351
0.63683346
0.63683337
0.63683345
0.63683348
0.63683348
0.6368334
0.63683343
0.63683347
0.63683347
0.63683338
0.63683345
0.63683348
0.63683348
0.63683337
0.63683339
0.63683339
0.63683339
0.63683338
0.6368334
0.63683339
0.63683339
0.63683337
0.63683339
0.63683338
0.63683339
0.63683338
0.6368334
0.63683339
0.63683339
0.63683339
0.63683338
0.63683339
0.6368334
0.63683339
0.63683339
0.63683338
0.63683338
0.63683338
0.63683338
0.63683339
0.63683341
0.63683339
0.63683338
0.63683336
0.63683337
0.63683393
0.63683357
0.63683362
0.63683361
0.63683368
0.6368335
0.63683349
0.63683353
0.63683376
0.63683364
0.63683359
0.63683361
0.63683353
0.63683344
0.63683342
0.63683343
0.63683349
0.63683356
0.63683355
0.63683355
0.63683341
0.63683349
0.6368335
0.63683347
0.63683347
0.63683355
0.63683356
0.63683357
0.63683337
0.6368334
0.63683339
0.63683341
0.63683369
0.63683359
0.63683362
0.63683363
0.63683362
0.63683351
0.63683355
0.63683352
0.6368337
0.63683366
0.63683366
0.63683363
0.63683333
0.63683342
0.63683336
0.63683337
0.63683344
0.63683352
0.63683355
0.6368335
0.63683341
0.63683348
0.6368335
0.63683349
0.63683345
0.63683352
0.63683357
0.63683359
0.63683335
0.63683333
0.63683334
0.63683335
0.63683352
0.63683351
0.63683351
0.63683357
0.63683349
0.63683349
0.63683348
0.63683349
0.63683361
0.63683359
0.63683359
0.63683361
0.63683336
0.63683338
0.63683336
0.63683338
0.63683353
0.63683356
0.63683357
0.63683355
0.63683348
0.63683348
0.63683348
0.63683348
0.6368336
0.6368336
0.63683361
0.63683361
0.63683338
0.63683336
0.63683337
0.63683337
0.63683355
0.63683354
0.63683357
0.63683356
0.63683348
0.63683348
0.63683347
0.63683346
0.63683362
0.63683363
0.63683364
0.63683365
0.63683337
0.63683337
0.63683336
0.63683335
0.63683358
0.63683359
0.63683362
0.63683363
0.63683346
0.63683344
0.63683345
0.63683339
0.63683366
0.63683367
0.63683372
0.63683372
0.63683336
0.63683334
0.63683337
0.63683332
0.63683421
0.63683384
0.63683389
0.63683393
0.63683346
0.63683329
0.63683321
0.63683335
0.6368345
0.63683398
0.63683396
0.63683392
0.63683346
0.63683337
0.6368334
0.63683341
0.63683368
0.63683387
0.63683391
0.63683394
0.63683326
0.63683324
0.63683324
0.63683324
0.63683374
0.63683386
0.63683383
0.63683387
0.63683336
0.63683339
0.63683338
0.63683341
0.63683443
0.63683409
0.63683409
0.63683409
0.63683311
0.63683317
0.63683318
0.6368332
0.63683414
0.63683383
0.63683393
0.63683375
0.6368335
0.63683337
0.63683347
0.63683339
0.63683364
0.63683392
0.63683383
0.63683388
0.63683325
0.63683328
0.63683326
0.63683329
0.63683358
0.63683373
0.63683369
0.63683366
0.63683334
0.63683343
0.63683343
0.63683343
0.63683369
0.63683376
0.6368337
0.63683369
0.6368333
0.63683335
0.63683335
0.63683337
0.63683355
0.63683358
0.63683358
0.63683355
0.63683342
0.63683343
0.63683343
0.63683346
0.6368337
0.63683368
0.63683363
0.63683362
0.63683341
0.63683341
0.63683343
0.63683345
0.63683355
0.63683352
0.63683352
0.6368335
0.63683347
0.63683347
0.63683347
0.63683346
0.63683363
0.63683359
0.63683356
0.63683356
0.63683348
0.63683346
0.63683347
0.63683349
0.63683356
0.63683352
0.6368335
0.63683353
0.63683349
0.63683348
0.63683348
0.63683346
0.63683359
0.63683356
0.63683355
0.63683354
0.63683349
0.63683349
0.63683352
0.63683348
0.63683356
0.6368335
0.63683351
0.63683355
0.63683353
0.63683351
0.63683347
0.63683353
0.63683394
0.6368336
0.63683361
0.63683359
0.63683392
0.63683349
0.63683359
0.63683352
0.63683365
0.63683367
0.63683356
0.63683353
0.6368337
0.63683361
0.63683341
0.6368336
0.63683339
0.63683344
0.63683346
0.63683347
0.6368334
0.63683345
0.63683347
0.63683348
0.63683341
0.63683343
0.63683347
0.63683345
0.63683342
0.63683348
0.63683343
0.6368335
0.63683337
0.6368334
0.6368334
0.63683339
0.63683338
0.6368334
0.6368334
0.63683339
0.63683339
0.6368334
0.63683341
0.63683341
0.63683339
0.6368334
0.6368334
0.6368334
0.6368334
0.6368334
0.63683339
0.63683341
0.63683339
0.63683339
0.63683337
0.63683336
0.6368334
0.63683341
0.63683342
0.63683343
0.63683338
0.63683337
0.63683338
0.63683338
0.63683368
0.63683356
0.63683353
0.63683355
0.6368335
0.63683342
0.63683344
0.63683338
0.63683364
0.63683347
0.63683368
0.63683346
0.63683356
0.63683347
0.63683342
0.63683345
0.63683346
0.63683351
0.63683347
0.63683353
0.63683336
0.63683339
0.63683336
0.63683338
0.6368335
0.63683351
0.63683347
0.63683348
0.63683341
0.63683345
0.63683344
0.63683344
0.63683351
0.6368335
0.63683345
0.63683346
0.6368334
0.63683341
0.63683337
0.63683335
0.63683349
0.6368335
0.63683347
0.63683344
0.63683347
0.63683341
0.63683345
0.63683342
-0.57585094
-0.45417616
-0.37933459
-0.33053488
-0.42754933
-0.32208934
-0.25583393
-0.21203269
-0.37654244
-0.27588887
-0.21214572
-0.16972011
-0.35653489
-0.25760788
-0.19471934
-0.15271763
-0.29760634
-0.27502489
-0.25957677
-0.24931723
-0.18220041
-0.1616171
-0.14749076
-0.13811278
-0.140662
-0.12052431
-0.10666348
-0.097454987
-0.12386066
-0.10381022
-0.089983799
-0.080792315
-0.24306342
-0.24013377
-0.24021524
-0.24330637
-0.13243687
-0.1298591
-0.13010484
-0.13318015
-0.091901033
-0.089424937
-0.089765171
-0.092930036
-0.075258659
-0.072817842
-0.073213773
-0.076455229
-0.24971656
-0.26012081
-0.27568902
-0.29833926
-0.1393717
-0.14929493
-0.16400547
-0.18521455
-0.099197486
-0.10916058
-0.123832
-0.14484566
-0.082815818
-0.092878139
-0.10763586
-0.12869012
-0.33122779
-0.37974585
-0.45372586
-0.57296947
-0.21569717
-0.26010137
-0.32668113
-0.43145221
-0.17483807
-0.21820168
-0.28269415
-0.38328129
-0.15862145
-0.20172391
-0.26557127
-0.36475053
0.63683379
0.63683351
0.63683348
0.63683352
0.6368336
0.63683343
0.63683342
0.63683344
0.63683366
0.63683343
0.63683346
0.63683345
0.63683365
0.63683341
0.63683347
0.63683347
0.63683347
0.63683352
0.6368335
0.63683356
0.63683341
0.63683343
0.63683342
0.63683346
0.63683344
0.63683347
0.63683347
0.6368335
0.63683342
0.63683344
0.63683344
0.6368335
0.63683367
0.63683359
0.63683352
0.6368336
0.63683355
0.63683346
0.63683346
0.63683347
0.63683358
0.63683351
0.63683349
0.6368335
0.63683353
0.63683346
0.6368335
0.63683347
0.63683344
0.63683351
0.63683352
0.63683347
0.63683339
0.63683345
0.63683347
0.63683343
0.63683342
0.63683346
0.63683348
0.63683346
0.63683341
0.63683346
0.63683346
0.63683345
0.63683347
0.6368335
0.63683347
0.63683347
0.63683342
0.63683343
0.63683345
0.63683344
0.63683344
0.63683346
0.63683345
0.63683346
0.6368334
0.63683345
0.63683344
0.63683345
0.63683348
0.63683348
0.63683349
0.63683345
0.63683346
0.63683345
0.63683348
0.63683346
0.63683346
0.63683344
0.63683344
0.63683346
0.63683346
0.63683346
0.63683345
0.63683346
0.6368335
0.63683347
0.63683348
0.63683347
0.63683348
0.63683346
0.63683348
0.63683348
0.63683348
0.63683346
0.63683347
0.63683346
0.63683346
0.63683345
0.63683347
0.63683346
0.63683348
0.63683351
0.6368335
0.63683352
0.63683349
0.63683346
0.63683347
0.63683348
0.63683349
0.63683349
0.63683348
0.63683347
0.63683349
0.63683343
0.63683349
0.63683349
0.63683371
0.6368336
0.63683358
0.6368334
0.63683377
0.63683341
0.63683359
0.63683355
0.63683376
0.63683347
0.63683353
0.63683342
0.63683372
0.63683345
0.63683358
0.63683346
0.63683336
0.6368335
0.63683342
0.63683346
0.63683341
0.63683342
0.63683349
0.63683347
0.63683339
0.63683343
0.63683345
0.63683343
0.63683338
0.63683346
0.63683349
0.63683342
0.63683339
0.6368334
0.63683341
0.63683343
0.63683338
0.63683339
0.63683338
0.63683338
0.63683339
0.63683341
0.6368334
0.6368334
0.63683338
0.63683339
0.63683339
0.63683339
0.63683342
0.63683342
0.63683341
0.63683341
0.63683338
0.63683339
0.63683339
0.63683339
0.63683341
0.6368334
0.63683339
0.63683338
0.63683338
0.63683339
0.6368334
0.6368334
0.63683365
0.63683337
0.63683354
0.63683355
0.63683368
0.63683343
0.63683345
0.63683352
0.63683354
0.63683349
0.63683346
0.63683344
0.6368337
0.63683337
0.63683346
0.6368335
0.63683341
0.63683346
0.63683345
0.63683343
0.63683343
0.63683345
0.63683346
0.63683345
0.63683345
0.63683342
0.63683344
0.63683343
0.63683343
0.63683345
0.63683342
0.63683343
0.6368335
0.63683343
0.63683344
0.63683344
0.63683345
0.63683347
0.63683341
0.63683343
0.63683348
0.63683346
0.63683341
0.63683343
0.63683344
0.63683346
0.63683341
0.63683341
-0.34819361
-0.24993074
-0.18734549
-0.14547101
-0.34455591
-0.2465598
-0.18408093
-0.14223624
-0.3428728
-0.24499307
-0.18255043
-0.14070489
-0.34201497
-0.244196
-0.1817661
-0.13991174
-0.1166533
-0.096601188
-0.08275898
-0.073553561
-0.11341208
-0.093339082
-0.079474201
-0.070251927
-0.11186368
-0.091768751
-0.077883669
-0.068647083
-0.11105316
-0.090939212
-0.077037556
-0.067789127
-0.068017321
-0.065590582
-0.066019733
-0.069313586
-0.064709125
-0.062288807
-0.062738429
-0.06606675
-0.063098068
-0.060680909
-0.061143899
-0.064495448
-0.062234791
-0.059819255
-0.060291243
-0.063659412
-0.0757435
-0.08588713
-0.10072952
-0.12185771
-0.072544146
-0.082745784
-0.097652871
-0.11884635
-0.071005517
-0.081248232
-0.096202773
-0.11744752
-0.070192864
-0.080465592
-0.095455579
-0.11674002
-0.15182901
-0.1948983
-0.25856825
-0.35728171
-0.1488739
-0.19197473
-0.25562401
-0.35421018
-0.14752601
-0.19067118
-0.2543477
-0.35292409
-0.14686045
-0.19004718
-0.25376075
-0.35236262
0.63683364
0.63683344
0.63683345
0.63683344
0.63683362
0.63683343
0.63683346
0.63683346
0.63683357
0.63683342
0.63683343
0.63683342
0.63683359
0.63683344
0.63683345
0.63683344
0.63683342
0.63683347
0.63683341
0.63683353
0.63683343
0.63683346
0.63683342
0.63683344
0.63683342
0.63683344
0.63683349
0.63683338
0.63683341
0.63683341
0.63683346
0.63683345
0.63683352
0.63683347
0.63683347
0.63683349
0.63683366
0.63683343
0.63683347
0.63683348
0.63683364
0.63683344
0.63683345
0.63683348
0.6368335
0.63683348
0.63683347
0.63683344
0.6368334
0.63683346
0.63683345
0.63683348
0.6368334
0.63683345
0.63683343
0.63683345
0.63683339
0.63683345
0.63683345
0.63683344
0.63683341
0.63683343
0.63683346
0.63683344
0.63683341
0.63683345
0.63683342
0.63683344
0.6368334
0.63683347
0.63683342
0.63683343
0.63683338
0.63683344
0.63683342
0.63683343
0.63683341
0.63683342
0.63683344
0.63683343
0.63683345
0.63683345
0.63683343
0.63683347
0.63683344
0.63683345
0.63683343
0.63683346
0.63683344
0.63683343
0.63683343
0.63683343
0.63683345
0.63683343
0.63683343
0.63683341
0.63683344
0.63683344
0.63683345
0.63683346
0.63683347
0.63683345
0.63683344
0.63683345
0.63683348
0.63683344
0.63683345
0.63683344
0.63683346
0.63683343
0.63683343
0.63683344
0.63683347
0.63683348
0.63683343
0.63683349
0.63683347
0.63683344
0.63683347
0.63683346
0.63683347
0.63683346
0.63683345
0.63683346
0.63683344
0.63683345
0.63683343
0.6368335
0.6368337
0.63683349
0.63683355
0.63683344
0.63683365
0.63683351
0.63683346
0.63683348
0.63683361
0.63683347
0.63683354
0.63683343
0.63683352
0.63683346
0.6368335
0.63683337
0.63683342
0.63683337
0.63683348
0.63683343
0.63683341
0.6368334
0.63683344
0.63683345
0.6368334
0.63683342
0.63683341
0.63683343
0.63683341
0.63683342
0.6368334
0.63683344
0.63683337
0.63683339
0.63683339
0.6368334
0.63683338
0.63683338
0.63683338
0.63683338
0.63683338
0.63683339
0.63683338
0.63683339
0.63683336
0.63683337
0.63683337
0.63683338
0.63683339
0.63683339
0.63683339
0.63683337
0.63683338
0.63683339
0.63683339
0.63683338
0.63683338
0.63683338
0.63683338
0.63683337
0.63683338
0.63683338
0.63683338
0.6368334
0.63683359
0.63683339
0.63683347
0.63683347
0.63683363
0.6368334
0.63683342
0.63683355
0.63683343
0.63683353
0.63683336
0.63683346
0.6368335
0.63683348
0.63683344
0.63683344
0.63683339
0.63683346
0.63683343
0.63683342
0.63683339
0.63683342
0.63683344
0.63683343
0.6368334
0.63683341
0.6368334
0.63683342
0.63683343
0.63683344
0.63683341
0.6368334
0.63683347
0.63683343
0.63683343
0.63683339
0.63683343
0.63683342
0.63683342
0.63683342
0.63683344
0.63683341
0.63683339
0.63683339
0.63683346
0.63683341
0.63683341
0.63683339
-0.34151107
-0.24373302
-0.18130922
-0.13944542
-0.34116365
-0.24341984
-0.18100071
-0.13912874
-0.34089039
-0.24317832
-0.18076412
-0.13888516
-0.34065718
-0.2429752
-0.18056608
-0.13868107
-0.11057149
-0.090441451
-0.076526033
-0.067267785
-0.11024151
-0.090097749
-0.076170368
-0.066903573
-0.10998636
-0.089830335
-0.075892279
-0.066617709
-0.10977181
-0.089604656
-0.075656702
-0.066374861
-0.061708673
-0.059293948
-0.059772457
-0.063152936
-0.061340033
-0.05892557
-0.059408982
-0.062799049
-0.061049903
-0.058635209
-0.05912255
-0.062520502
-0.060802962
-0.058387753
-0.0588782
-0.062282881
-0.069704285
-0.079999896
-0.095017313
-0.11633291
-0.069364695
-0.07967869
-0.094718471
-0.11605933
-0.069097931
-0.079427307
-0.0944857
-0.11584793
-0.068870408
-0.079213096
-0.094287597
-0.1156683
-0.14648734
-0.18970935
-0.25345763
-0.35209091
-0.14624156
-0.18949285
-0.25327065
-0.35193207
-0.14605347
-0.18932927
-0.2531316
-0.35181609
-0.14589388
-0.18919055
-0.25301344
-0.3517164
0.63683354
0.63683342
0.63683341
0.63683343
0.6368336
0.63683342
0.63683343
0.63683344
0.63683354
0.63683341
0.63683341
0.63683342
0.63683352
0.6368334
0.63683341
0.63683341
0.63683341
0.63683343
0.63683341
0.63683349
0.6368334
0.63683344
0.6368334
0.63683343
0.6368334
0.63683342
0.63683342
0.63683344
0.63683339
0.63683342
0.63683342
0.63683342
0.63683349
0.63683347
0.63683343
0.63683346
0.63683346
0.63683353
0.63683342
0.63683347
0.63683349
0.63683342
0.63683348
0.63683343
0.63683348
0.63683339
0.63683347
0.63683343
0.63683339
0.63683342
0.63683342
0.63683342
0.63683339
0.63683344
0.63683343
0.63683343
0.63683338
0.63683341
0.63683342
0.63683341
0.63683338
0.63683342
0.63683341
0.63683341
0.6368334
0.6368334
0.63683341
0.63683341
0.6368334
0.63683343
0.63683341
0.63683341
0.63683338
0.63683339
0.6368334
0.6368334
0.63683339
0.63683341
0.63683341
0.63683341
0.63683343
0.63683342
0.63683343
0.63683342
0.63683343
0.63683342
0.63683342
0.6368334
0.63683341
0.63683339
0.63683344
0.63683343
0.63683342
0.63683339
0.63683339
0.63683342
0.63683346
0.63683344
0.63683343
0.63683344
0.63683342
0.63683345
0.63683342
0.63683343
0.6368334
0.63683342
0.63683342
0.63683343
0.63683341
0.6368334
0.63683341
0.63683341
0.63683344
0.63683345
0.63683342
0.63683349
0.63683344
0.63683342
0.63683342
0.63683345
0.63683345
0.63683343
0.63683342
0.63683347
0.63683343
0.63683341
0.63683341
0.63683346
0.63683357
0.63683352
0.6368335
0.63683336
0.63683361
0.63683344
0.63683349
0.6368334
0.63683351
0.63683348
0.63683347
0.63683336
0.63683351
0.63683343
0.63683347
0.63683339
0.63683339
0.63683343
0.63683341
0.63683341
0.63683339
0.63683337
0.63683343
0.6368334
0.63683341
0.63683337
0.63683343
0.6368334
0.63683339
0.63683335
0.63683339
0.63683342
0.63683337
0.63683337
0.63683337
0.63683337
0.63683336
0.63683336
0.63683337
0.63683336
0.63683336
0.63683337
0.63683337
0.63683336
0.63683336
0.63683336
0.63683336
0.63683336
0.63683338
0.63683336
0.63683336
0.63683337
0.63683337
0.63683337
0.63683338
0.63683338
0.63683336
0.63683334
0.63683335
0.63683335
0.63683338
0.63683336
0.63683337
0.63683337
0.63683342
0.63683347
0.63683341
0.63683338
0.63683356
0.63683341
0.6368334
0.63683343
0.63683341
0.63683349
0.63683337
0.63683337
0.63683345
0.63683343
0.6368334
0.63683338
0.63683338
0.63683339
0.63683341
0.63683337
0.63683343
0.63683339
0.63683342
0.63683339
0.63683341
0.63683338
0.63683338
0.6368334
0.63683338
0.63683339
0.63683337
0.63683338
0.63683341
0.63683339
0.63683339
0.63683338
0.63683343
0.6368334
0.63683339
0.63683339
0.63683339
0.63683341
0.63683336
0.63683339
0.63683339
0.63683338
0.63683336
0.63683336
-0.34045005
-0.24279665
-0.18039261
-0.13850199
-0.34026297
-0.24263636
-0.18023689
-0.13834111
-0.34009331
-0.24249153
-0.18009615
-0.13819509
-0.33993946
-0.24236031
-0.17996844
-0.13806232
-0.10958307
-0.089405449
-0.075448278
-0.066159425
-0.10941298
-0.089225321
-0.075259408
-0.065963825
-0.1092582
-0.089061038
-0.075086593
-0.065784571
-0.10911676
-0.088910526
-0.074927834
-0.065619471
-0.06058344
-0.058167369
-0.058660273
-0.062070842
-0.060383871
-0.057966873
-0.058461793
-0.061877429
-0.060200593
-0.057782352
-0.058279001
-0.061699254
-0.060031648
-0.057612169
-0.058110195
-0.061534467
-0.068667335
-0.079021815
-0.094110558
-0.11550752
-0.068481872
-0.078847018
-0.093948652
-0.11536022
-0.068310868
-0.078685698
-0.093799062
-0.1152241
-0.06815268
-0.078536268
-0.093660434
-0.11509781
-0.14575092
-0.18906569
-0.25290613
-0.35162403
-0.14561949
-0.18895053
-0.25280613
-0.35153641
-0.14549762
-0.18884344
-0.25271258
-0.35145339
-0.14538455
-0.18874357
-0.2526251
-0.35137515
0.63683353
0.63683339
0.63683339
0.63683342
0.63683355
0.63683339
0.6368334
0.63683342
0.63683343
0.63683339
0.63683338
0.63683336
0.6368335
0.6368334
0.63683338
0.63683342
0.63683336
0.63683341
0.63683339
0.63683343
0.63683337
0.63683341
0.63683338
0.63683345
0.63683338
0.6368334
0.63683337
0.6368334
0.63683337
0.63683339
0.63683339
0.63683345
0.63683342
0.63683355
0.63683338
0.63683342
0.6368334
0.63683344
0.63683343
0.6368334
0.6368334
0.63683339
0.6368335
0.63683335
0.63683341
0.6368334
0.63683344
0.63683342
0.63683337
0.6368334
0.63683341
0.6368334
0.63683338
0.63683341
0.63683339
0.6368334
0.63683335
0.63683339
0.63683339
0.63683336
0.63683336
0.63683339
0.63683339
0.63683339
0.63683337
0.63683338
0.6368334
0.63683339
0.6368334
0.63683337
0.63683339
0.63683339
0.63683337
0.63683337
0.63683338
0.63683339
0.63683337
0.63683338
0.63683337
0.63683338
0.63683341
0.6368334
0.6368334
0.63683341
0.63683339
0.63683338
0.63683339
0.63683339
0.63683339
0.63683338
0.63683339
0.63683336
0.63683339
0.63683338
0.63683339
0.63683337
0.63683341
0.6368334
0.63683341
0.63683341
0.63683342
0.63683338
0.6368334
0.63683339
0.63683343
0.63683339
0.63683339
0.6368334
0.6368334
0.63683337
0.63683338
0.63683338
0.63683344
0.63683342
0.63683339
0.63683345
0.63683341
0.63683339
0.63683341
0.63683343
0.63683342
0.63683338
0.63683341
0.63683343
0.6368334
0.63683337
0.63683338
0.63683342
0.63683351
0.63683344
0.63683342
0.63683343
0.63683342
0.63683347
0.63683342
0.63683334
0.63683348
0.63683343
0.63683346
0.63683333
0.63683349
0.6368334
0.63683346
0.63683336
0.63683341
0.63683338
0.63683337
0.63683339
0.63683339
0.63683336
0.63683336
0.63683339
0.63683339
0.63683334
0.63683339
0.63683336
0.63683333
0.63683337
0.63683335
0.63683337
0.63683335
0.63683336
0.63683336
0.63683335
0.63683335
0.63683336
0.63683335
0.63683335
0.63683334
0.63683335
0.63683335
0.63683333
0.63683334
0.63683334
0.63683335
0.63683333
0.63683335
0.63683335
0.63683336
0.63683335
0.63683336
0.63683335
0.63683335
0.63683334
0.63683335
0.63683335
0.63683335
0.63683335
0.63683333
0.63683334
0.63683334
0.63683333
0.63683351
0.63683336
0.63683341
0.63683339
0.63683337
0.63683344
0.63683339
0.63683336
0.63683347
0.63683333
0.63683336
0.63683344
0.63683345
0.63683334
0.63683335
0.63683336
0.63683339
0.63683339
0.63683339
0.63683338
0.63683337
0.63683335
0.63683338
0.63683335
0.63683336
0.63683337
0.63683337
0.63683336
0.63683336
0.63683334
0.63683336
0.63683334
0.63683341
0.6368334
0.63683337
0.63683339
0.63683338
0.63683334
0.63683336
0.63683334
0.6368334
0.63683338
0.63683337
0.63683339
0.63683336
0.63683334
0.63683335
0.6368333
-0.33980038
-0.24224166
-0.17985259
-0.13794122
-0.3396749
-0.2421348
-0.17974779
-0.13783126
-0.33956212
-0.24203862
-0.17965299
-0.13773122
-0.33946106
-0.24195232
-0.17956766
-0.13764067
-0.10898746
-0.088772337
-0.074781868
-0.065467383
-0.1088694
-0.088645739
-0.07464761
-0.065327366
-0.10876159
-0.088529804
-0.074524303
-0.06519847
-0.10866345
-0.088423869
-0.074411395
-0.065080095
-0.059875614
-0.057454842
-0.057954049
-0.061381946
-0.059731764
-0.057309583
-0.057809697
-0.061240931
-0.059599188
-0.057175523
-0.057676454
-0.061110564
-0.059477372
-0.057052105
-0.057553745
-0.060990522
-0.068006207
-0.078397921
-0.093531995
-0.1149808
-0.067870698
-0.078269835
-0.093413108
-0.1148723
-0.067745421
-0.078151535
-0.093303334
-0.1147723
-0.067629867
-0.078042357
-0.093202031
-0.11467993
-0.14527978
-0.18865113
-0.25254382
-0.35130214
-0.1451826
-0.1885654
-0.2524685
-0.3512343
-0.14509308
-0.18848633
-0.25239914
-0.35117195
-0.14501057
-0.18841358
-0.25233523
-0.35111457
0.6368334
0.63683336
0.63683334
0.63683339
0.63683352
0.6368334
0.63683336
0.6368334
0.6368334
0.63683335
0.63683336
0.63683334
0.63683344
0.63683336
0.63683337
0.63683337
0.63683333
0.63683338
0.63683333
0.63683339
0.63683336
0.63683341
0.63683337
0.6368334
0.63683334
0.63683335
0.63683336
0.63683338
0.63683335
0.63683337
0.63683334
0.63683337
0.63683335
0.63683348
0.63683325
0.63683347
0.63683344
0.63683343
0.6368333
0.63683343
0.63683337
0.63683331
0.6368335
0.6368333
0.63683341
0.63683334
0.63683339
0.63683336
0.63683334
0.63683337
0.63683337
0.63683337
0.63683335
0.63683337
0.63683338
0.63683336
0.63683335
0.63683335
0.63683337
0.63683336
0.63683334
0.63683335
0.63683335
0.63683335
0.63683335
0.63683337
0.63683337
0.63683334
0.63683336
0.63683336
0.63683337
0.63683335
0.63683334
0.63683335
0.63683336
0.63683336
0.63683334
0.63683334
0.63683335
0.63683335
0.63683337
0.63683337
0.63683337
0.63683337
0.63683336
0.63683336
0.63683336
0.63683336
0.63683336
0.63683337
0.63683336
0.63683335
0.63683334
0.63683335
0.63683335
0.63683333
0.63683341
0.63683336
0.63683338
0.63683338
0.63683339
0.63683335
0.63683337
0.63683337
0.6368334
0.63683335
0.63683337
0.63683336
0.63683336
0.63683337
0.63683336
0.63683336
0.6368334
0.63683337
0.63683338
0.63683337
0.63683338
0.63683338
0.63683338
0.63683342
0.63683337
0.63683336
0.63683334
0.63683339
0.63683336
0.63683336
0.63683336
0.63683339
0.63683344
0.63683342
0.6368334
0.63683338
0.63683338
0.63683342
0.63683338
0.63683339
0.63683332
0.63683342
0.63683333
0.63683339
0.63683338
0.63683338
0.63683336
0.63683338
0.63683335
0.63683335
0.63683336
0.63683335
0.63683331
0.63683337
0.63683333
0.63683335
0.63683331
0.63683336
0.63683332
0.63683337
0.63683331
0.63683335
0.63683332
0.63683331
0.63683334
0.63683334
0.63683333
0.63683335
0.63683333
0.63683333
0.63683332
0.63683334
0.63683333
0.63683333
0.63683332
0.63683332
0.63683332
0.63683332
0.63683332
0.63683333
0.63683333
0.63683334
0.63683334
0.63683333
0.63683332
0.63683333
0.63683334
0.63683334
0.63683332
0.63683332
0.63683333
0.63683333
0.63683332
0.63683332
0.63683333
0.63683332
0.63683337
0.63683339
0.6368334