/*--------------------------------*- C++ -*----------------------------------*\
| =========                 |                                                 |
| \\      /  F ield         | OpenFOAM: The Open Source CFD Toolbox           |
|  \\    /   O peration     | Version:  1.4.1-dev                             |
|   \\  /    A nd           | Web:      http://www.openfoam.org               |
|    \\/     M anipulation  |                                                 |
\*---------------------------------------------------------------------------*/

FoamFile
{
    version 2.0;
    format ascii;

    root "/home/cliffoi/OpenFOAM/cliffoi-1.4.1-dev/run/diffusionFoam";
    case "oecd_simplified_2G";
    instance "0";
    local "";

    class volScalarField;
    object Buckling2;
}

// * * * * * * * * * * * * * * * * * * * * * * * * * * * * * * * * * * * * * //

dimensions      [0 -1 0 0 0 0 0];

internalField   nonuniform List<scalar> 
9280
(
0.024183675
0.024183801
0.024183717
0.024183656
0.023852087
0.023852165
0.023852155
0.023852112
0.023514066
0.023514095
0.023514071
0.023514002
0.023166217
0.023166188
0.023166078
0.02316583
0.024183061
0.024182059
0.024180478
0.024178292
0.023851807
0.023851345
0.023850536
0.023849336
0.023513674
0.023513042
0.023511899
0.023510133
0.023164973
0.023162996
0.023159655
0.02315464
0.02417539
0.024171714
0.024167323
0.024162318
0.023847604
0.023845283
0.023842411
0.023839129
0.023507453
0.023503687
0.023498832
0.023493062
0.023147275
0.023136938
0.023123541
0.023107239
0.024159729
0.024158067
0.02415693
0.024155668
0.023837445
0.023836409
0.02383566
0.023834942
0.023489721
0.023488065
0.023486727
0.023485353
0.023096344
0.023092056
0.023088013
0.023083794
0.024154007
0.024152122
0.024150206
0.024148315
0.023833977
0.023832935
0.023831955
0.023831089
0.023483547
0.023481532
0.023479598
0.023477813
0.023078257
0.023071466
0.02306479
0.02305825
0.024146901
0.02414555
0.024144345
0.02414324
0.023830561
0.02383007
0.023829755
0.023829501
0.023476616
0.023475614
0.023474818
0.023474152
0.023053083
0.023048943
0.023045158
0.023041394
0.024141306
0.024139302
0.024137568
0.024136199
0.023829208
0.023829489
0.023830345
0.023831893
0.023473334
0.023473302
0.023474303
0.023476481
0.023036095
0.023030449
0.023026619
0.023024946
0.024135244
0.024134784
0.02413483
0.024135371
0.023834184
0.023837296
0.023841267
0.02384612
0.023479958
0.023484882
0.023491315
0.023499287
0.023025583
0.023028776
0.023034734
0.023043512
0.02413652
0.024138212
0.024140474
0.024143349
0.023851919
0.023858654
0.023866343
0.023874983
0.023508888
0.023520137
0.023533043
0.023547595
0.023055234
0.023069935
0.023087711
0.023108452
0.024146792
0.024150806
0.024155377
0.024160483
0.02388457
0.023895073
0.023906477
0.023918728
0.023563846
0.023581662
0.023601084
0.023621974
0.023132273
0.023159008
0.023188674
0.023221102
0.024166073
0.024172176
0.024178679
0.024185574
0.023931786
0.023945568
0.023960032
0.023975056
0.023644305
0.023667943
0.023692784
0.023718668
0.023256159
0.023293612
0.023333288
0.023374838
0.024191519
0.024194437
0.024197892
0.024201497
0.023986283
0.023993608
0.024001041
0.024008472
0.02373859
0.023750877
0.02376364
0.023776471
0.023406143
0.023426512
0.023447081
0.023467926
0.024205568
0.024210992
0.02421634
0.02422175
0.024017924
0.024029078
0.024040348
0.024051717
0.023792354
0.023811688
0.023831044
0.023850484
0.023493946
0.023525026
0.023556312
0.023587653
0.024226668
0.024229281
0.024232489
0.024235685
0.024060491
0.024067468
0.024074228
0.024081028
0.023866352
0.023877542
0.023889073
0.023900524
0.023612353
0.023631042
0.023649583
0.023668045
0.024239785
0.024246242
0.024252272
0.024258192
0.024091291
0.024104444
0.024117566
0.024130544
0.023917303
0.023939848
0.023961937
0.023983719
0.02369557
0.02373117
0.023766221
0.023800577
0.024264894
0.024272675
0.024280074
0.024287173
0.024145774
0.024162853
0.024179483
0.024195661
0.024009073
0.024037733
0.024065514
0.02409248
0.02384054
0.023884896
0.023927614
0.023968659
0.0242937
0.024299608
0.024305266
0.024310696
0.024210632
0.024224558
0.024238011
0.024251104
0.024117435
0.024140566
0.024162982
0.024184686
0.024006292
0.024040915
0.024074236
0.024106283
0.024315467
0.024319567
0.024323544
0.024327329
0.024262774
0.024273172
0.024283317
0.02429315
0.024204136
0.024221416
0.024238262
0.024254651
0.024134701
0.024159968
0.024184437
0.024208085
0.024330759
0.024333717
0.024336508
0.024339215
0.024302029
0.024310059
0.02431784
0.024325325
0.024269558
0.024282951
0.024296006
0.024308641
0.024229459
0.024248719
0.024267353
0.024285244
0.024342203
0.024341831
0.024342467
0.024342724
0.024329989
0.024332958
0.024335226
0.024337103
0.024317653
0.024321552
0.024325849
0.024329165
0.024297059
0.024303524
0.024309416
0.024313946
0.02280437
0.022804196
0.022803787
0.022803109
0.022423799
0.022423341
0.022422372
0.022420774
0.022019099
0.022018181
0.022016174
0.022012946
0.021585211
0.021583543
0.021579739
0.021573798
0.022800977
0.022795571
0.022786752
0.022773623
0.022416014
0.022403572
0.022383447
0.022353423
0.022003406
0.021978039
0.02193673
0.021874443
0.021556144
0.021508691
0.021430451
0.021310423
0.022754569
0.022727838
0.022692932
0.022649696
0.022309634
0.022247538
0.022165182
0.022061045
0.021782277
0.021649024
0.021468172
0.021233419
0.021128922
0.020859416
0.020482273
0.019975931
0.022619665
0.022608198
0.022596907
0.022585242
0.021986186
0.021958355
0.021930007
0.021900959
0.021059363
0.02099471
0.020928275
0.020859766
0.019585857
0.01944069
0.019289989
0.019133704
0.022569691
0.02255013
0.022530471
0.022510863
0.021861739
0.02181181
0.021760988
0.021709824
0.020766805
0.020647305
0.020524601
0.020399936
0.018920101
0.01864231
0.018354377
0.018059272
0.022494729
0.022481601
0.022468939
0.022456679
0.02166691
0.021632059
0.021597826
0.021564167
0.020294435
0.02020857
0.020123448
0.020039575
0.017807455
0.017601948
0.017397472
0.017195352
0.022437816
0.022415151
0.022395755
0.022380404
0.021512239
0.021446908
0.021388279
0.021337771
0.019909485
0.019743476
0.019592247
0.019458967
0.016881731
0.016480123
0.016114114
0.015791128
0.022369544
0.02236357
0.022362822
0.022367507
0.021296464
0.02126518
0.021244491
0.021234727
0.019345927
0.019254574
0.019185803
0.019139932
0.015515696
0.015289922
0.01511417
0.014987746
0.022377831
0.022393846
0.022415649
0.022443265
0.021236172
0.021248954
0.021273154
0.021308859
0.019117133
0.019117377
0.019140723
0.019187333
0.014909644
0.014878931
0.014895193
0.014958677
0.022476679
0.022515816
0.022560598
0.022610832
0.021356112
0.021414894
0.021485127
0.021566582
0.019257444
0.019351364
0.01946933
0.019611337
0.01507036
0.015231761
0.015444693
0.015710674
0.022666302
0.022726547
0.022791181
0.022859594
0.021658875
0.021761309
0.021872909
0.021992415
0.019776978
0.019965177
0.020173997
0.0204006
0.016030375
0.016402771
0.016824327
0.01728853
0.022911844
0.02294542
0.022979518
0.023014183
0.02208361
0.022143183
0.022203686
0.022264772
0.02057499
0.020688899
0.020804825
0.020922086
0.017647861
0.017883979
0.018124057
0.018366751
0.023057269
0.023108995
0.02316088
0.023212648
0.022341412
0.022432559
0.02252384
0.022614436
0.021068558
0.021242698
0.021415928
0.021586781
0.018669672
0.019027061
0.01937982
0.019724321
0.023253824
0.023284015
0.023314236
0.023344172
0.02268531
0.022738118
0.022790377
0.022841744
0.021719482
0.021817245
0.021913478
0.022007671
0.019987911
0.020181572
0.020370318
0.020553582
0.023388384
0.023445768
0.023501533
0.023555627
0.022917962
0.023014522
0.023107395
0.023196312
0.022146081
0.022319249
0.022482875
0.022636679
0.020820965
0.021148059
0.021451168
0.021730238
0.023617861
0.023686062
0.023750708
0.023811892
0.023297384
0.02340543
0.023505729
0.023598635
0.022808606
0.022987546
0.023149225
0.023295012
0.022036006
0.022344237
0.022614414
0.022850639
0.023867147
0.023917324
0.02396499
0.024010309
0.023680685
0.023753857
0.023822079
0.023885808
0.023420312
0.023529428
0.023628802
0.023719557
0.023047439
0.023214273
0.02336217
0.023493685
0.024050028
0.02408503
0.02411861
0.024150875
0.023940645
0.02398842
0.024033662
0.024076582
0.02379594
0.02386133
0.023922257
0.023979118
0.023601488
0.023692006
0.023774668
0.023850301
0.024179746
0.02420559
0.024230506
0.024254191
0.024114496
0.024148121
0.024180168
0.024210279
0.024028521
0.024071824
0.024112425
0.024150037
0.023914711
0.023970275
0.024021479
0.024067932
0.024270091
0.024278015
0.024285454
0.024291014
0.02422957
0.024239731
0.024248662
0.024254512
0.024173598
0.024185513
0.024195694
0.024200987
0.024095947
0.024109843
0.024120979
0.024124895
0.02111858
0.021115687
0.021109125
0.021098957
0.020619399
0.020614732
0.020604252
0.020588057
0.020094121
0.020087226
0.020071775
0.020047827
0.019556561
0.019547166
0.019526246
0.019493697
0.021068599
0.020986087
0.020847817
0.020631014
0.020539521
0.020406004
0.020178068
0.019811661
0.019976013
0.019776062
0.019428209
0.018854543
0.019395995
0.019121212
0.018635265
0.017815559
0.020294224
0.019777234
0.019025545
0.01797216
0.019224707
0.018288343
0.016863423
0.01475769
0.017905526
0.01632767
0.013800943
0.0098249808
0.016419358
0.014005856
0.0099400182
0.0030991984
0.017120022
0.016800813
0.016465712
0.016114818
0.01294295
0.012255207
0.011522235
0.010743409
0.0061153027
0.0046824268
0.0031220387
0.0014273086
-0.0038921014
-0.0066684265
-0.0097820774
-0.013269641
0.015630803
0.014991279
0.014319117
0.013621822
0.0096537584
0.0081789685
0.0065934865
0.0049143644
-0.00099700458
-0.0044053329
-0.0082139297
-0.012407082
-0.018425047
-0.026102412
-0.035255679
-0.046093611
0.01302069
0.012527755
0.01203559
0.01154807
0.0034405484
0.0022208305
0.00099454649
-0.00022475759
-0.016227279
-0.019461986
-0.022777734
-0.026120096
-0.056791059
-0.06641706
-0.076916918
-0.088176288
0.010791894
0.0098275937
0.0089578607
0.008200091
-0.0021152306
-0.0044964212
-0.006594077
-0.0083723014
-0.031330669
-0.037678738
-0.043018069
-0.047342862
-0.10681632
-0.12665475
-0.14203891
-0.15384751
0.0075615437
0.0070421407
0.0066374064
0.0063409878
-0.0098310861
-0.010990665
-0.011879529
-0.012526585
-0.050750889
-0.053370965
-0.05532813
-0.056728204
-0.16281227
-0.16952261
-0.1744375
-0.17790068
0.0061466827
0.0060497336
0.0060477267
0.0061409913
-0.012956367
-0.013186349
-0.013225516
-0.013073752
-0.057651904
-0.058153291
-0.058259711
-0.05797203
-0.18015557
-0.1813578
-0.18158398
-0.18083614
0.0063327184
0.0066286423
0.0070364102
0.007564192
-0.012721557
-0.012150443
-0.011333759
-0.010239097
-0.057264272
-0.056082866
-0.054345686
-0.051942248
-0.17904174
-0.17604885
-0.17161673
-0.16540168
0.0082189465
0.0090035956
0.0099138685
0.010935015
-0.0088324623
-0.0070861208
-0.0049908744
-0.0025735946
-0.048737578
-0.044585042
-0.039358816
-0.033027774
-0.15693801
-0.14561392
-0.13063934
-0.11099564
0.011733181
0.012258662
0.012792832
0.013331304
-0.00065569918
0.00060934894
0.0018905363
0.0031735056
-0.027821151
-0.024405186
-0.020993976
-0.017645583
-0.092400691
-0.080927024
-0.070175193
-0.060273026
0.014000647
0.014782744
0.015544734
0.016277931
0.0047536265
0.0065651865
0.0082921973
0.0099146457
-0.013617973
-0.009176825
-0.0051106128
-0.0014408499
-0.049080317
-0.037716431
-0.028058583
-0.019898635
0.01682929
0.017230111
0.017616385
0.01798736
0.011103267
0.011955278
0.012763747
0.013528394
0.0011439413
0.0029562522
0.0046384721
0.0061962064
-0.014476405
-0.010793843
-0.0074763113
-0.0044890738
0.018522767
0.019162165
0.01974039
0.020259862
0.014616302
0.015875566
0.016981695
0.017947388
0.00836896
0.010788444
0.012839715
0.014572082
-0.00042858437
0.0038901016
0.0074076669
0.010274161
0.020815811
0.021357345
0.021816614
0.022205252
0.018953482
0.019897612
0.02067096
0.02130382
0.016322727
0.017902483
0.019151485
0.020140559
0.0130803
0.015517985
0.017382924
0.018817234
0.02251862
0.022776739
0.022999177
0.02319159
0.021797735
0.022193196
0.022524571
0.022803642
0.020889026
0.021472618
0.021949382
0.022341225
0.019874329
0.020680618
0.021325792
0.021845919
0.02334493
0.023470993
0.023583656
0.023684581
0.023020113
0.023194397
0.023346897
0.023480732
0.022638056
0.022872617
0.023074045
0.023247668
0.0222326
0.022533832
0.022788783
0.023005467
0.023768686
0.02383999
0.023904416
0.023961573
0.023589847
0.023680822
0.023761381
0.023831295
0.023386581
0.023500622
0.023599946
0.023684355
0.023176359
0.023315015
0.023434216
0.023534042
0.023994532
0.02401093
0.024022504
0.024023837
0.023870092
0.023888236
0.023900834
0.023898427
0.023729479
0.023750293
0.023763196
0.023756489
0.023585611
0.023609363
0.023622425
0.023611935
0.019024979
0.019013316
0.018987285
0.018946789
0.018515325
0.018501925
0.018472038
0.018425547
0.01803499
0.01802054
0.017988248
0.017938052
0.017583638
0.017568613
0.017535145
0.017483071
0.018825034
0.018480456
0.017864606
0.016810387
0.018285691
0.01788909
0.017178022
0.015955833
0.017787048
0.017358988
0.016592039
0.015275129
0.017326512
0.016883143
0.016090006
0.01473085
0.01497949
0.011728357
0.0060445856
-0.0040403149
0.013823019
0.010014264
0.0033135492
-0.0086585139
0.012980112
0.0088892843
0.001709173
-0.011084945
0.012367415
0.0081650299
0.00080723
-0.012274433
-0.01519173
-0.019758519
-0.025040615
-0.031159723
-0.021974801
-0.027443305
-0.03377546
-0.041118664
-0.025257463
-0.031080003
-0.03781601
-0.045622102
-0.02672551
-0.032666729
-0.039537255
-0.047497238
-0.040559292
-0.0555674
-0.075116413
-0.10102662
-0.052419322
-0.070487923
-0.094071207
-0.12539483
-0.057633647
-0.076824362
-0.10188131
-0.13520684
-0.059748046
-0.079318485
-0.10488509
-0.13892346
-0.13052461
-0.16085721
-0.19966777
-0.25050307
-0.16108212
-0.19790057
-0.24512321
-0.30719865
-0.17324986
-0.21264814
-0.26340476
-0.33055279
-0.1778294
-0.21820073
-0.27032199
-0.33947284
0.20017695
0.18291902
0.16895069
0.15787601
0.17779888
0.15542275
0.13651111
0.12096423
0.16754452
0.14257605
0.12103018
0.10297
0.16290464
0.13683538
0.11411119
0.094875001
0.14926944
0.14273106
0.13791666
0.13455059
0.10851793
0.098834468
0.091570666
0.086422027
0.088259054
0.076644356
0.067829434
0.061529435
0.079062561
0.066477763
0.056863699
0.049960152
0.13242934
0.13142023
0.13145923
0.13254964
0.083148587
0.081587798
0.081660282
0.083371856
0.05750832
0.05560111
0.055725691
0.057887584
0.045544405
0.04345761
0.043619533
0.046034669
0.1347621
0.13823652
0.14318451
0.14989057
0.086813168
0.092157303
0.099653092
0.10961049
0.062179328
0.068774391
0.077913743
0.08988184
0.050791646
0.058055429
0.068051035
0.081035885
0.15870846
0.17004666
0.18433542
0.20196476
0.12237274
0.13826917
0.15754469
0.1802681
0.10496779
0.12340913
0.14531969
0.17061056
0.097257898
0.11689838
0.14000299
0.16641102
-0.25834322
-0.2070939
-0.16773189
-0.13680605
-0.31447764
-0.25228638
-0.20472691
-0.16746535
-0.33741021
-0.27027389
-0.21926398
-0.17948096
-0.34624735
-0.27711899
-0.22474709
-0.18399012
-0.10620181
-0.079290193
-0.058865239
-0.043071621
-0.13072132
-0.098440859
-0.073992122
-0.055123848
-0.14040567
-0.10615213
-0.080247771
-0.060265954
-0.1440386
-0.10906359
-0.082641681
-0.062272182
-0.033281557
-0.026874158
-0.021285051
-0.01639595
-0.043443839
-0.035812292
-0.029162932
-0.023352965
-0.047888928
-0.03980199
-0.032751854
-0.026587497
-0.049653727
-0.04141046
-0.034222658
-0.027936041
-0.0099232934
-0.0033221691
0.001870558
0.005980165
-0.01567358
-0.007860298
-0.0017316124
0.0031044284
-0.018436579
-0.010128597
-0.0036018532
0.001556333
-0.019622737
-0.011139666
-0.0044681423
0.00081116553
0.0099041514
0.013219364
0.015697925
0.017567099
0.0077081553
0.011581414
0.014465189
0.016630984
0.0064740034
0.010619301
0.01371071
0.016035827
0.0058508971
0.010108047
0.013289656
0.015687972
0.018921182
0.01993961
0.020744024
0.021384785
0.018193441
0.019364202
0.02028548
0.021016551
0.017715308
0.018975003
0.019967144
0.020755043
0.017424389
0.018729625
0.01975997
0.020580133
0.021855762
0.022219363
0.022524427
0.022781523
0.021551855
0.021963913
0.022308488
0.022597957
0.02133234
0.021776919
0.02214894
0.022461587
0.021182573
0.021647513
0.02203742
0.02236588
0.022982503
0.023144417
0.023282494
0.023397085
0.022823562
0.0230048
0.023158914
0.023286375
0.022705424
0.022901394
0.023068197
0.02320627
0.022622769
0.022829684
0.023006363
0.023153173
0.023455398
0.023481733
0.023495711
0.023481553
0.023350773
0.023379813
0.023395085
0.023378657
0.023276343
0.023307794
0.023324822
0.023307734
0.02322817
0.023262474
0.023281167
0.023264814
0.01715725
0.017141991
0.017108055
0.017055404
0.016751343
0.016736234
0.016702209
0.016649599
0.016363164
0.016347995
0.01631436
0.016261904
0.01599062
0.015975621
0.015942297
0.015890323
0.016896815
0.016448276
0.015646883
0.01427556
0.016491065
0.016042814
0.015242498
0.013873889
0.016104468
0.015659128
0.014864176
0.013504835
0.015734305
0.015292992
0.014505112
0.013157462
0.011894276
0.0076658275
0.00027020331
-0.012870121
0.011498492
0.0072816817
-9.3662414e-05
-0.013202238
0.011145185
0.0069548566
-0.00037842988
-0.013422323
0.010817033
0.0066580514
-0.000626469
-0.013595658
-0.02737089
-0.03333752
-0.040237124
-0.048231174
-0.027666214
-0.03362242
-0.040510641
-0.048492833
-0.027818761
-0.033751447
-0.040613518
-0.048566549
-0.027915504
-0.033820525
-0.040651519
-0.048569717
-0.060537949
-0.080199941
-0.10589734
-0.14013036
-0.060784415
-0.080425397
-0.10610303
-0.14032052
-0.060816324
-0.080393174
-0.10599256
-0.14011135
-0.060768668
-0.08026647
-0.10576648
-0.1397558
-0.17928139
-0.21994225
-0.27248087
-0.34225903
-0.17946211
-0.22012632
-0.27268135
-0.34249738
-0.17914101
-0.21969224
-0.27209847
-0.3417083
-0.1786352
-0.21902864
-0.27122229
-0.34053025
0.16071447
0.13426108
0.11108869
0.091376213
0.1595724
0.13305399
0.10976752
0.08990729
0.1588784
0.13243137
0.1091771
0.089315833
0.15837884
0.13205876
0.10889807
0.089098967
0.075095831
0.062083406
0.052107064
0.044924357
0.0734636
0.060289918
0.050169464
0.042871438
0.072847341
0.059635287
0.049472509
0.042136166
0.07266642
0.059470744
0.049311454
0.041971625
0.040324006
0.038153567
0.038335365
0.040873358
0.038192757
0.035986055
0.036176018
0.038766588
0.037429118
0.035207941
0.035399394
0.03800773
0.037258775
0.035032706
0.035222026
0.03783152
0.045852509
0.053430438
0.063820254
0.077261784
0.043840388
0.051550299
0.062102014
0.075725232
0.043114293
0.050869052
0.061473251
0.075150692
0.042941817
0.05070108
0.061307731
0.074981965
0.093979257
0.11412489
0.13771244
0.16455097
0.092631478
0.11295862
0.13670611
0.16367132
0.092106075
0.11247014
0.13623621
0.16319793
0.091924569
0.11226268
0.13598721
0.16289155
-0.3491872
-0.27937602
-0.22654484
-0.18546551
-0.34971645
-0.27977857
-0.2268669
-0.18573514
-0.34929251
-0.27945725
-0.22661969
-0.1855444
-0.34851793
-0.27887503
-0.22617129
-0.18519393
-0.14523283
-0.11003205
-0.083454109
-0.062971795
-0.14546368
-0.11023518
-0.083642409
-0.063152408
-0.14533033
-0.11015139
-0.083597546
-0.063138905
-0.14507291
-0.10997149
-0.083475483
-0.06306124
-0.050283868
-0.04199692
-0.034770881
-0.028450463
-0.050459943
-0.04217135
-0.034944039
-0.028622472
-0.05046566
-0.042190439
-0.0349749
-0.028663742
-0.050415032
-0.0421579
-0.034958188
-0.028660802
-0.020093236
-0.011560951
-0.0048474851
0.00046847822
-0.02026488
-0.011730142
-0.0050134023
0.00030684949
-0.020320791
-0.011799743
-0.0050930669
0.00022020293
-0.020336824
-0.011834084
-0.005141263
0.00016184212
0.0055467342
0.0098424161
0.0130578
0.015485938
0.005390938
0.0096953566
0.012920685
0.015359606
0.0052985894
0.0096009134
0.012827189
0.015269425
0.0052312342
0.0095281953
0.012752579
0.015195609
0.017247656
0.018574698
0.019624753
0.020462802
0.017132162
0.018469769
0.019530457
0.020379116
0.017046923
0.018390332
0.019457655
0.020313562
0.016975923
0.018323321
0.019395709
0.020257434
0.021080194
0.021557908
0.021959691
0.022299206
0.021006138
0.021492581
0.021902924
0.022250802
0.020947718
0.021440845
0.02185807
0.02221292
0.020897588
0.021396503
0.021819765
0.022180874
0.022565716
0.022781083
0.022965699
0.023119937
0.022524922
0.022747258
0.022938652
0.023099501
0.022493579
0.022722055
0.022919534
0.023086491
0.022467447
0.022701578
0.022904731
0.023077439
0.023199696
0.023236379
0.023257469
0.02324252
0.023183634
0.023222945
0.023246297
0.023233474
0.023174904
0.023216576
0.023242521
0.023231885
0.023169948
0.023213948
0.023242342
0.02323424
0.01563307
0.015618184
0.015585205
0.01553378
0.015290217
0.015275502
0.015242829
0.015191961
0.014961994
0.01494743
0.014915053
0.014864737
0.014648447
0.014634154
0.014602059
0.014552226
0.015379321
0.014942375
0.014162072
0.012826734
0.015039078
0.014606505
0.013833725
0.012510554
0.014713402
0.014285092
0.013519602
0.012208158
0.014402379
0.013978135
0.01321961
0.011919345
0.010506206
0.0063793533
-0.00085556001
-0.013748785
0.010209546
0.0061140263
-0.0010726127
-0.013891837
0.0099259035
0.0058604034
-0.0012799935
-0.014028243
0.0096549769
0.0056180568
-0.0014782909
-0.014158846
-0.027991246
-0.033867689
-0.040666774
-0.048548997
-0.028058896
-0.033907541
-0.04067523
-0.048522028
-0.028123112
-0.033944715
-0.040682231
-0.048494823
-0.028184723
-0.033980813
-0.040689176
-0.048469133
-0.060694929
-0.080110121
-0.10550512
-0.13935605
-0.06061567
-0.079948968
-0.10523953
-0.1389521
-0.060537896
-0.079791911
-0.10498109
-0.13855899
-0.060463602
-0.079641578
-0.10473331
-0.13818176
-0.1780734
-0.21829492
-0.27025524
-0.33922948
-0.17750696
-0.21755511
-0.26927966
-0.33791602
-0.17695543
-0.21683437
-0.26832834
-0.33663423
-0.17642568
-0.21614186
-0.26741357
-0.33540141
0.15796751
0.13179461
0.10875118
0.089039798
0.15760058
0.13157935
0.10866035
0.089045414
0.15726012
0.13138832
0.10859337
0.089076275
0.15693908
0.13121163
0.10853719
0.089115625
0.072668628
0.059512694
0.049376799
0.042048748
0.072745023
0.059638069
0.049533626
0.042223663
0.072848911
0.059793602
0.049723351
0.042433719
0.07296045
0.059956633
0.049920795
0.042651897
0.037339967
0.03511305
0.035298304
0.037901147
0.037523028
0.035296869
0.035477042
0.03806965
0.037742722
0.035517836
0.03569245
0.038273299
0.037970856
0.035747345
0.035916164
0.038484725
0.043001845
0.050747328
0.061334092
0.074979964
0.043154798
0.050878513
0.061435834
0.075042852
0.043340439
0.051039204
0.061563468
0.075127917
0.043533074
0.051205977
0.061696306
0.075217606
0.091883229
0.11216912
0.13582788
0.16265418
0.09189619
0.11211996
0.13570448
0.16244637
0.091927922
0.11208694
0.13559573
0.16225296
0.091964192
0.11205909
0.13549369
0.16206877
-0.34763808
-0.27821811
-0.22566796
-0.18480189
-0.34675015
-0.27755893
-0.2251658
-0.18441257
-0.34589101
-0.27692384
-0.22468419
-0.18404121
-0.34507307
-0.27632108
-0.22422865
-0.18369137
-0.14478489
-0.10976904
-0.083335628
-0.062968966
-0.14450042
-0.10957038
-0.083199225
-0.062879315
-0.14423066
-0.10938354
-0.083072199
-0.062797041
-0.14397794
-0.10920998
-0.082955506
-0.062722725
-0.050351238
-0.042113131
-0.034929935
-0.028646835
-0.050289679
-0.042069877
-0.034902555
-0.028633458
-0.050234156
-0.042031954
-0.034879601
-0.02862337
-0.050184852
-0.041999272
-0.034861219
-0.028617022
-0.020342258
-0.011858314
-0.0051797168
0.00011288707
-0.020347358
-0.011881352
-0.0052162362
6.6448545e-05
-0.020354856
-0.011905601
-0.0052529783
2.0575548e-05
-0.020364767
-0.011931134
-0.0052900799
-2.4902834e-05
0.0051729543
0.0094640537
0.012685994
0.015129225
0.0051177796
0.009403429
0.012623135
0.015066615
0.0050639368
0.0093447223
0.012562572
0.015006515
0.0050112239
0.0092876981
0.012504038
0.014948633
0.016911754
0.018262551
0.019339379
0.020206369
0.016851268
0.018205316
0.019286376
0.020158361
0.016793353
0.018150612
0.019235786
0.020112586
0.016737705
0.018098154
0.019187352
0.020068821
0.020851961
0.021356215
0.021785075
0.022151985
0.020809154
0.021318451
0.021752664
0.022125102
0.020768368
0.021282525
0.021721812
0.022099567
0.020729405
0.021248226
0.021692417
0.022075217
0.022444206
0.022683602
0.022892183
0.023070371
0.022422657
0.022667066
0.022880812
0.023064222
0.022402225
0.022651519
0.022870133
0.023058583
0.022382717
0.022636649
0.022859915
0.023053168
0.023166814
0.023213096
0.023243725
0.023238371
0.023164443
0.023212937
0.023245903
0.023242702
0.023162331
0.023212997
0.02324803
0.023247321
0.02316036
0.023212973
0.023250136
0.023251559
0.01434971
0.014335475
0.014303763
0.014254351
0.014065689
0.014051591
0.014020163
0.013971208
0.013796236
0.01378228
0.013751147
0.013702616
0.013541304
0.013527454
0.013496549
0.013448485
0.01410596
0.013685616
0.012933732
0.011644098
0.013824157
0.013407509
0.012661916
0.011382377
0.013556834
0.013143719
0.012404106
0.01113414
0.013303884
0.012894094
0.012160129
0.010899227
0.0093967043
0.0053869302
-0.0016675674
-0.01428371
0.0091510853
0.0051670711
-0.001847698
-0.014402636
0.0089180914
0.0049584897
-0.0020186179
-0.014515476
0.0086976146
0.0047611147
-0.0021803264
-0.014622148
-0.028243969
-0.034015515
-0.040696326
-0.048445021
-0.028300595
-0.034048722
-0.040703268
-0.048422233
-0.028354302
-0.034080283
-0.040709864
-0.048400532
-0.028405006
-0.034109791
-0.040715807
-0.048379671
-0.060393175
-0.079498445
-0.1044971
-0.13782179
-0.060326247
-0.079362362
-0.10427225
-0.13747898
-0.060262575
-0.079232948
-0.10405861
-0.13715325
-0.060201938
-0.079109896
-0.10385564
-0.1368441
-0.17591998
-0.21548035
-0.26653988
-0.33422381
-0.17543856
-0.21485048
-0.26570808
-0.33310298
-0.17498104
-0.21425226
-0.26491817
-0.33203905
-0.17454702
-0.21368494
-0.26416962
-0.33103142
0.15663468
0.13104519
0.10848632
0.089156832
0.15634591
0.13088769
0.10843878
0.089197117
0.15607233
0.13073832
0.10839382
0.089235379
0.1558139
0.13059713
0.10835125
0.0892715
0.073071205
0.060117438
0.050115193
0.0428666
0.073178094
0.060272173
0.050302181
0.043073108
0.073279717
0.060419373
0.05048003
0.043269553
0.073375746
0.060558536
0.05064825
0.043455326
0.038195357
0.035973137
0.036136131
0.038692401
0.038411244
0.036190188
0.036347414
0.03889163
0.038616587
0.036396527
0.036548158
0.039080717
0.038810773
0.036591569
0.036737737
0.039259132
0.043722007
0.051369225
0.06182607
0.075305036
0.04390295
0.051525185
0.061949614
0.075387792
0.044074403
0.051672654
0.062065995
0.075465213
0.044235954
0.051811328
0.062175107
0.07553733
0.091999606
0.11203248
0.13539569
0.16189216
0.092032422
0.11200596
0.13530119
0.16172296
0.0920623
0.11197946
0.13521029
0.1615614
0.092089347
0.11195315
0.13512313
0.16140765
-0.34429896
-0.27575216
-0.22379995
-0.18336284
-0.34356855
-0.27521601
-0.22339653
-0.18305473
-0.34287995
-0.27471131
-0.22301739
-0.18276535
-0.34223198
-0.27423645
-0.22266087
-0.18249371
-0.1437418
-0.10904878
-0.082848071
-0.062655379
-0.14352091
-0.10889871
-0.082748901
-0.062593757
-0.14331402
-0.10875874
-0.082656819
-0.062537201
-0.14312002
-0.10862788
-0.082570992
-0.062484834
-0.050141263
-0.041971009
-0.034846372
-0.028613637
-0.050102168
-0.041946486
-0.034834067
-0.028612269
-0.05006667
-0.041924649
-0.03482398
-0.028612212
-0.050034061
-0.041904969
-0.034815334
-0.028612914
-0.020376513
-0.011957384
-0.0053270762
-6.9636403e-05
-0.020389347
-0.011983753
-0.0053633971
-0.00011313304
-0.020402588
-0.012009765
-0.005398687
-0.00015509764
-0.020415872
-0.012034913
-0.0054325694
-0.0001951832
0.0049598875
0.0092325176
0.012447635
0.014893015
0.0049103072
0.0091794581
0.01239356
0.0148398
0.0048627353
0.0091287213
0.012341968
0.014789104
0.0048173935
0.0090804615
0.012292962
0.014740999
0.016684347
0.018047913
0.019141009
0.020026984
0.016633365
0.017999974
0.019096822
0.019987112
0.01658485
0.017954372
0.019054825
0.019949238
0.016538846
0.017911157
0.019015027
0.01991335
0.02069217
0.021215456
0.02166433
0.02205197
0.020656694
0.021184256
0.021637553
0.022029813
0.020622995
0.021154628
0.021612136
0.022008776
0.020591086
0.02112654
0.021588074
0.021988821
0.02236415
0.02262244
0.022850217
0.023047944
0.022346394
0.022608849
0.022840884
0.023042909
0.022329538
0.022595961
0.022832014
0.023038119
0.02231353
0.022583723
0.022823513
0.023033525
0.023158482
0.023212857
0.023252068
0.023255689
0.023156486
0.023212748
0.02325372
0.023259399
0.023154601
0.023212597
0.023255372
0.023262742
0.023152746
0.023212287
0.023256761
0.023266027
0.013300628
0.013286874
0.013256185
0.013208527
0.013073899
0.013060314
0.013029895
0.012982548
0.012861046
0.012847421
0.012817236
0.012770277
0.012661531
0.012648043
0.012618075
0.012571407
0.013065086
0.012658447
0.011929823
0.010677479
0.0128402
0.012436529
0.011712956
0.010468675
0.012628945
0.012228078
0.011509253
0.010272566
0.012431034
0.012032789
0.011318422
0.01008886
0.0084895037
0.0045748251
-0.0023329062
-0.014722685
0.0082935644
0.0043994624
-0.0024764624
-0.014817125
0.0081095629
0.0042348119
-0.0026111919
-0.014905606
0.007937221
0.0040806581
-0.0027372523
-0.014988224
-0.028452568
-0.034137504
-0.040721035
-0.048359563
-0.028496937
-0.034163182
-0.040725505
-0.048340073
-0.028538417
-0.034186894
-0.040729288
-0.048321384
-0.028576845
-0.034208632
-0.040732332
-0.048303256
-0.060144148
-0.07899315
-0.10366323
-0.13655126
-0.06008911
-0.078882395
-0.10348117
-0.13627438
-0.060036852
-0.078777645
-0.10330926
-0.13601327
-0.059987302
-0.078678825
-0.10314732
-0.1357677
-0.17413623
-0.21314814
-0.26346169
-0.33007918
-0.17374814
-0.2126414
-0.26279363
-0.32918139
-0.1733824
-0.2121641
-0.26216494
-0.32833683
-0.17303868
-0.21171566
-0.26157476
-0.32754456
0.15557011
0.13046395
0.10831091
0.089305464
0.1553409
0.13033867
0.10827291
0.089337327
0.1551259
0.13022107
0.10823722
0.089367031
0.15492485
0.13011106
0.10820387
0.089394918
0.073466116
0.060689687
0.050806792
0.043630402
0.073551059
0.060812867
0.050955813
0.043795002
0.07363068
0.060928382
0.051095452
0.043949324
0.073705088
0.061036456
0.051226112
0.04409357
0.038993705
0.036775373
0.036916268
0.039426949
0.039165527
0.036947881
0.037083846
0.039584352
0.039326754
0.037109638
0.037240831
0.039731806
0.039477362
0.037260748
0.037387399
0.039869398
0.044387782
0.051941413
0.062277177
0.075604358
0.044529981
0.05206314
0.06237248
0.075666668
0.044663024
0.05217683
0.062461327
0.075724613
0.044787157
0.052282807
0.062543935
0.075778219
0.09211392
0.11192751