/*--------------------------------*- C++ -*----------------------------------*\
| =========                 |                                                 |
| \\      /  F ield         | OpenFOAM: The Open Source CFD Toolbox           |
|  \\    /   O peration     | Version:  1.4.1-dev                             |
|   \\  /    A nd           | Web:      http://www.openfoam.org               |
|    \\/     M anipulation  |                                                 |
\*---------------------------------------------------------------------------*/

FoamFile
{
    version 2.0;
    format ascii;

    root "/home/cliffoi/OpenFOAM/cliffoi-1.4.1-dev/run/diffusionFoam";
    case "oecd_simplified_2G";
    instance "0";
    local "";

    class volScalarField;
    object dn_lamC5;
}

// * * * * * * * * * * * * * * * * * * * * * * * * * * * * * * * * * * * * * //

dimensions      [0 -3 -1 0 0 0 0];

internalField   nonuniform List<scalar> 
9280
(
0
0
0
0
0
0
0
0
0
0
0
0
0
0
0
0
0
0
0
0
0
0
0
0
0
0
0
0
0
0
0
0
0
0
0
0
0
0
0
0
0
0
0
0
0
0
0
0
0
0
0
0
0
0
0
0
0
0
0
0
0
0
0
0
0
0
0
0
0
0
0
0
0
0
0
0
0
0
0
0
0
0
0
0
0
0
0
0
0
0
0
0
0
0
0
0
0
0
0
0
0
0
0
0
0
0
0
0
0
0
0
0
0
0
0
0
0
0
0
0
0
0
0
0
0
0
0
0
0
0
0
0
0
0
0
0
0
0
0
0
0
0
0
0
0
0
0
0
0
0
0
0
0
0
0
0
0
0
0
0
0
0
0
0
0
0
0
0
0
0
0
0
0
0
0
0
0
0
0
0
0
0
0
0
0
0
0
0
0
0
0
0
0
0
0
0
0
0
0
0
0
0
0
0
0
0
0
0
0
0
0
0
0
0
0
0
0
0
0
0
0
0
0
0
0
0
0
0
0
0
0
0
0
0
0
0
0
0
0
0
0
0
0
0
0
0
0
0
0
0
0
0
0
0
0
0
0
0
0
0
0
0
0
0
0
0
0
0
0
0
0
0
0
0
0
0
0
0
0
0
0
0
0
0
0
0
0
0
0
0
0
0
0
0
0
0
0
0
0
0
0
0
0
0
0
0
0
0
0
0
0
0
0
0
0
0
0
0
0
0
0
0
0
0
0
0
0
0
0
0
0
0
0
0
0
0
0
0
0
0
0
0
0
0
0
0
0
0
0
0
0
0
0
0
0
0
0
0
0
0
0
0
0
0
0
0
0
0
0
0
0
0
0
0
0
0
0
0
0
0
0
0
0
0
0
0
0
0
0
0
0
0
0
0
0
0
0
0
0
0
0
0
0
0
0
0
0
0
0
0
0
0
0
0
0
0
0
0
0
0
0
0
0
0
0
0
0
0
0
0
0
0
0
0
0
0
0
0
0
0
0
0
0
0
0
0
0
0
0
0
0
0
0
0
0
0
0
0
0
0
0
0
0
0
0
0
0
0
0
0
0
0
0
0
0
0
0
0
0
0
0
0
0
0
0
0
0
0
0
0
0
0
0
0
0
0
0
0
0
0
0
0
0
0
0
0
0
0
0
0
0
0
0
0
0
0
0
0
0
0
0
0
0
0
0
0
0
0
0
0
0
0
0
0
0
0
0
0
0
0
0
0
0
0
0
0
0
0
0
0
0
0
0
0
0
0
0
0
0
0
0
0
0
0
0
0
0
0
0
0
0
0
0
0
0
0
0
0
0
0
0
0
0
0
0
0
0
0
0
0
0
0
0
0
0
0
0
0
0
0
0
0
0
0
0
0
0
0
0
0
0
0
0
0
0
0
0
0
0
0
0
0
0
0
0
0
0
0
0
0
0
0
0
0
0
0
0
0
0
0
0
0
0
0
0
0
0
0
0
0
0
0
0
0
0
0
0
0
0
0
0
0
0
0
0
0
0
0
0
0
0
0
0
0
0
0
0
0
0
0
0
0
0
0
0
0
0
0
0
0
0
0
0
0
0
0
0
0
0
0
0
0
0
0
0
0
0
0
0
0
0
0
0
0
0
0
0
0
0
0
0
0
0
0
0
0
0
0
0
0
0
0
0
0
0
0
0
0
0
0
0
0
0
0
0
0
0
0
0
0
0
0
0
0
0
0
0
0
0
0
0
0
0
0
0
0
0
0
0
0
0
0
0
0
0
0
0
0
0
0
0
0
0
0
0
0
0
0
0
0
0
0
0
0
0
0
0
0
0
0
0
0
0
0
0
0
0
0
0
0
0
0
0
0
0
0
0
0
0
0
0
0
0
0
0
0
0
0
0
0
0
0
0
0
0
0
0
0
0
0
0
0
0
0
0
0
0
0
0
0
0
0
0
0
0
0
0
0
0
0
0
0
0
0
0
0
0
0
0
0
0
0
0
0
0
0
0
0
0
0
0
0
0
0
0
0
0
0
0
0
0
0
0
0
0
0
0
0
0
0
0
0
0
0
0
0
0
0
0
0
0
0
0
0
0
0
0
0
0
0
0
0
0
0
0
0
0
0
0
0
0
0
0
0
0
0
0
0
0
0
0
0
0
0
0
0
0
0
0
0
0
0
0
0
0
0
0
0
0
0
0
0
0
0
0
0
0
0
0
0
0
0
0
0
0
0
0
0
0
0
0
0
0
0
0
0
0
0
0
0
0
0
0
0
0
0
0
0
0
0
0
0
0
0
0
0
0
0
0
0
0
0
0
0
0
0
0
0
0
0
0
0
0
0
0
0
0
0
0
0
0
0
0
0
0
0
0
0
0
0
0
0
0
0
0
0
0
0
0
0
0
0
0
0
0
0
5.2109077e+14
4.9811875e+14
4.8083199e+14
4.6754497e+14
5.3239313e+14
5.0092522e+14
4.7693565e+14
4.5846447e+14
5.5857367e+14
5.2157838e+14
4.931059e+14
4.7105452e+14
5.9017964e+14
5.4914524e+14
5.1740331e+14
4.9272632e+14
4.5706289e+14
4.4853385e+14
4.4135176e+14
4.3509116e+14
4.4405995e+14
4.3265305e+14
4.2346434e+14
4.1593603e+14
4.5384579e+14
4.4030121e+14
4.295502e+14
4.2096203e+14
4.7343609e+14
4.5827456e+14
4.4630798e+14
4.3685618e+14
4.2946321e+14
4.2428625e+14
4.1946686e+14
4.1498904e+14
4.0968313e+14
4.0445924e+14
4.0013391e+14
3.9667937e+14
4.1409607e+14
4.0866644e+14
4.0451816e+14
4.0161275e+14
4.2944105e+14
4.2374975e+14
4.1960987e+14
4.1697421e+14
4.1091024e+14
4.0736371e+14
4.0456766e+14
4.0284223e+14
3.941652e+14
3.9276046e+14
3.9274305e+14
3.9451699e+14
4.0002202e+14
3.9992933e+14
4.0163814e+14
4.0558799e+14
4.1591408e+14
4.1662025e+14
4.1941133e+14
4.2475001e+14
4.0263721e+14
4.0457478e+14
4.0951568e+14
4.1866277e+14
3.9863836e+14
4.0585148e+14
4.1713679e+14
4.3377143e+14
4.1237877e+14
4.2280427e+14
4.3789656e+14
4.5898339e+14
4.3326786e+14
4.4580003e+14
4.6343194e+14
4.8756069e+14
0
0
0
0
0
0
0
0
0
0
0
0
0
0
0
0
0
0
0
0
0
0
0
0
0
0
0
0
0
0
0
0
0
0
0
0
0
0
0
0
0
0
0
0
0
0
0
0
0
0
0
0
0
0
0
0
0
0
0
0
0
0
0
0
0
0
0
0
0
0
0
0
0
0
0
0
0
0
0
0
0
0
0
0
0
0
0
0
0
0
0
0
0
0
0
0
0
0
0
0
0
0
0
0
0
0
0
0
0
0
0
0
0
0
0
0
0
0
0
0
0
0
0
0
0
0
0
0
0
0
0
0
0
0
0
0
0
0
0
0
0
0
0
0
0
0
0
0
0
0
0
0
0
0
0
0
0
0
0
0
0
0
0
0
0
0
0
0
0
0
0
0
0
0
0
0
0
0
0
0
0
0
0
0
0
0
0
0
0
0
0
0
0
0
0
0
0
0
0
0
0
0
0
0
0
0
0
0
0
0
0
0
0
0
0
0
0
0
0
0
0
0
0
0
0
0
0
0
0
0
0
0
0
0
0
0
0
0
0
0
6.2313168e+14
5.7885198e+14
5.4450579e+14
5.1774559e+14
6.5562696e+14
6.0856602e+14
5.7200426e+14
5.4348036e+14
6.8687642e+14
6.3733622e+14
5.988082e+14
5.687241e+14
7.1655247e+14
6.6475246e+14
6.2443593e+14
5.9293475e+14
4.9680156e+14
4.8034539e+14
4.6738951e+14
4.5721293e+14
5.2113829e+14
5.0358433e+14
4.8978149e+14
4.7897183e+14
5.4514686e+14
5.2662145e+14
5.1206465e+14
5.0068415e+14
5.6823611e+14
5.4882755e+14
5.3358264e+14
5.2167694e+14
4.4930722e+14
4.4333811e+14
4.3911938e+14
4.3659705e+14
4.7061991e+14
4.6437264e+14
4.6003205e+14
4.5753876e+14
4.9191959e+14
4.8540071e+14
4.8091905e+14
4.7841073e+14
5.1252687e+14
5.0574627e+14
5.0111709e+14
4.9857159e+14
4.3584228e+14
4.370523e+14
4.4055928e+14
4.4684734e+14
4.569646e+14
4.5851377e+14
4.6253209e+14
4.6952515e+14
4.7794892e+14
4.7974503e+14
4.8415867e+14
4.9171658e+14
4.9818455e+14
5.0017465e+14
5.0491492e+14
5.1295258e+14
4.5657874e+14
4.706307e+14
4.9014515e+14
5.1659448e+14
4.8018592e+14
4.9543376e+14
5.1646711e+14
5.4483323e+14
5.0314183e+14
5.193948e+14
5.417286e+14
5.7176248e+14
5.2503956e+14
5.4217541e+14
5.6566524e+14
5.9719644e+14
0
0
0
0
0
0
0
0
0
0
0
0
0
0
0
0
0
0
0
0
0
0
0
0
0
0
0
0
0
0
0
0
0
0
0
0
0
0
0
0
0
0
0
0
0
0
0
0
0
0
0
0
0
0
0
0
0
0
0
0
0
0
0
0
0
0
0
0
0
0
0
0
0
0
0
0
0
0
0
0
0
0
0
0
0
0
0
0
0
0
0
0
0
0
0
0
0
0
0
0
0
0
0
0
0
0
0
0
0
0
0
0
0
0
0
0
0
0
0
0
0
0
0
0
0
0
0
0
0
0
0
0
0
0
0
0
0
0
0
0
0
0
0
0
0
0
0
0
0
0
0
0
0
0
0
0
0
0
0
0
0
0
0
0
0
0
0
0
0
0
0
0
0
0
0
0
0
0
0
0
0
0
0
0
0
0
0
0
0
0
0
0
0
0
0
0
0
0
0
0
0
0
0
0
0
0
0
0
0
0
0
0
0
0
0
0
0
0
0
0
0
0
0
0
0
0
0
0
0
0
0
0
0
0
0
0
0
0
0
0
7.4454062e+14
6.9065631e+14
6.4869107e+14
6.1588391e+14
7.7082617e+14
7.1500813e+14
6.7151276e+14
6.3749294e+14
7.9544176e+14
7.3782508e+14
6.9290528e+14
6.5775555e+14
8.1844261e+14
7.5915166e+14
7.1290446e+14
6.7670068e+14
5.9015142e+14
5.6992765e+14
5.5404581e+14
5.416515e+14
6.1079975e+14
5.8981749e+14
5.7334187e+14
5.6049054e+14
6.3016635e+14
6.0847583e+14
5.9144488e+14
5.781652e+14
6.4827468e+14
6.2592197e+14
6.0837116e+14
5.9468991e+14
5.3213946e+14
5.2510877e+14
5.2033253e+14
5.1773951e+14
5.5063808e+14
5.4336981e+14
5.3845063e+14
5.3580616e+14
5.6799263e+14
5.6049969e+14
5.5544365e+14
5.5274719e+14
5.8421664e+14
5.7651199e+14
5.7132613e+14
5.6857901e+14
5.1740624e+14
5.1955842e+14
5.2458192e+14
5.3304343e+14
5.3551458e+14
5.3780831e+14
5.4308532e+14
5.5193061e+14
5.5249012e+14
5.5491111e+14
5.6041944e+14
5.6961723e+14
5.6835192e+14
5.7088937e+14
5.7661115e+14
5.861353e+14
5.4572223e+14
5.6365483e+14
5.8819527e+14
6.2109503e+14
5.6514912e+14
5.8381201e+14
6.0931916e+14
6.4348193e+14
5.8333339e+14
6.0267141e+14
6.2907388e+14
6.6440804e+14
6.0031303e+14
6.2027789e+14
6.4751222e+14
6.839352e+14
0
0
0
0
0
0
0
0
0
0
0
0
0
0
0
0
0
0
0
0
0
0
0
0
0
0
0
0
0
0
0
0
0
0
0
0
0
0
0
0
0
0
0
0
0
0
0
0
0
0
0
0
0
0
0
0
0
0
0
0
0
0
0
0
0
0
0
0
0
0
0
0
0
0
0
0
0
0
0
0
0
0
0
0
0
0
0
0
0
0
0
0
0
0
0
0
0
0
0
0
0
0
0
0
0
0
0
0
0
0
0
0
0
0
0
0
0
0
0
0
0
0
0
0
0
0
0
0
0
0
0
0
0
0
0
0
0
0
0
0
0
0
0
0
0
0
0
0
0
0
0
0
0
0
0
0
0
0
0
0
0
0
0
0
0
0
0
0
0
0
0
0
0
0
0
0
0
0
0
0
0
0
0
0
0
0
0
0
0
0
0
0
0
0
0
0
0
0
0
0
0
0
0
0
0
0
0
0
0
0
0
0
0
0
0
0
0
0
0
0
0
0
0
0
0
0
0
0
0
0
0
0
0
0
0
0
0
0
0
0
8.3989462e+14
7.7904546e+14
7.3156141e+14
6.9437431e+14
8.5986822e+14
7.9756996e+14
7.4893423e+14
7.1083045e+14
8.7843527e+14
8.1479081e+14
7.6508384e+14
7.261264e+14
8.9566711e+14
8.3077364e+14
7.8007155e+14
7.4032017e+14
6.6516682e+14
6.4219502e+14
6.2415768e+14
6.1010022e+14
6.8089361e+14
6.5734345e+14
6.3885119e+14
6.2444168e+14
6.9550961e+14
6.7141976e+14
6.5250267e+14
6.377642e+14
7.0907036e+14
6.8447761e+14
6.6516437e+14
6.5011899e+14
5.993449e+14
5.9144134e+14
5.861331e+14
5.8333759e+14
6.1342225e+14
6.0533227e+14
5.9990918e+14
5.97068e+14
6.2649785e+14
6.1823355e+14
6.1270303e+14
6.0981908e+14
6.3862222e+14
6.3019524e+14
6.245645e+14
6.216407e+14
5.8313745e+14
5.8578257e+14
5.9170251e+14
6.0153006e+14
5.968926e+14
5.9963783e+14
6.0574227e+14
6.1585234e+14
6.0966668e+14
6.1250523e+14
6.1878162e+14
6.2915488e+14
6.215098e+14
6.244354e+14
6.3087203e+14
6.4149033e+14
6.1613709e+14
6.3668507e+14
6.6469323e+14
7.0212899e+14
6.3085907e+14
6.5194977e+14
6.8067786e+14
7.1905545e+14
6.4453372e+14
6.6612934e+14
6.955268e+14
7.3477958e+14
6.5721533e+14
6.7928029e+14
7.0929947e+14
7.4936462e+14
0
0
0
0
0
0
0
0
0
0
0
0
0
0
0
0
0
0
0
0
0
0
0
0
0
0
0
0
0
0
0
0
0
0
0
0
0
0
0
0
0
0
0
0
0
0
0
0
0
0
0
0
0
0
0
0
0
0
0
0
0
0
0
0
0
0
0
0
0
0
0
0
0
0
0
0
0
0
0
0
0
0
0
0
0
0
0
0
0
0
0
0
0
0
0
0
0
0
0
0
0
0
0
0
0
0
0
0
0
0
0
0
0
0
0
0
0
0
0
0
0
0
0
0
0
0
0
0
0
0
0
0
0
0
0
0
0
0
0
0
0
0
0
0
0
0
0
0
0
0
0
0
0
0
0
0
0
0
0
0
0
0
0
0
0
0
0
0
0
0
0
0
0
0
0
0
0
0
0
0
0
0
0
0
0
0
0
0
0
0
0
0
0
0
0
0
0
0
0
0
0
0
0
0
0
0
0
0
0
0
0
0
0
0
0
0
0
0
0
0
0
0
0
0
0
0
0
0
0
0
0
0
0
0
0
0
0
0
0
0
9.116336e+14
8.4558293e+14
7.9395775e+14
7.5346909e+14
9.2640226e+14
8.5928115e+14
8.0680109e+14
7.656289e+14
9.4003787e+14
8.7192831e+14
8.1865796e+14
7.7685322e+14
9.5260213e+14
8.8358159e+14
8.2958211e+14
7.8719318e+14
7.2163084e+14
6.9657021e+14
6.7688816e+14
6.6155692e+14
7.3324457e+14
7.077494e+14
6.8772461e+14
6.7212761e+14
7.4396307e+14
7.1806508e+14
6.9772238e+14
6.8187878e+14
7.5383549e+14
7.2756487e+14
7.0692792e+14
6.9085601e+14
6.4984551e+14
6.41267e+14
6.3554298e+14
6.3258217e+14
6.6021662e+14
6.5149726e+14
6.4568659e+14
6.4269151e+14
6.6978258e+14
6.6093254e+14
6.5504155e+14
6.5201482e+14
6.7858831e+14
6.696173e+14
6.6365201e+14
6.6059607e+14
6.3247145e+14
6.3547821e+14
6.4206402e+14
6.5291021e+14
6.425997e+14
6.4568203e+14
6.5240653e+14
6.6346435e+14
6.519407e+14
6.5509329e+14
6.6194649e+14
6.7320046e+14
6.6053847e+14
6.6375621e+14
6.7072859e+14
6.8216399e+14
6.6895684e+14
6.914575e+14
7.2205338e+14
7.6287153e+14
6.7980935e+14
7.0271385e+14
7.3384384e+14
7.7535886e+14
6.8982176e+14
7.1309989e+14
7.4472364e+14
7.8688246e+14
6.9904061e+14
7.2266371e+14
7.54743e+14
7.9749536e+14
0
0
0
0
0
0
0
0
0
0
0
0
0
0
0
0
0
0
0
0
0
0
0
0
0
0
0
0
0
0
0
0
0
0
0
0
0
0
0
0
0
0
0
0
0
0
0
0
0
0
0
0
0
0
0
0
0
0
0
0
0
0
0
0
0
0
0
0
0
0
0
0
0
0
0
0
0
0
0
0
0
0
0
0
0
0
0
0
0
0
0
0
0
0
0
0
0
0
0
0
0
0
0
0
0
0
0
0
0
0
0
0
0
0
0
0
0
0
0
0
0
0
0
0
0
0
0
0
0
0
0
0
0
0
0
0
0
0
0
0
0
0
0
0
0
0
0
0
0
0
0
0
0
0
0
0
0
0
0
0
0
0
0
0
0
0
0
0
0
0
0
0
0
0
0
0
0
0
0
0
0
0
0
0
0
0
0
0
0
0
0
0
0
0
0
0
0
0
0
0
0
0
0
0
0
0
0
0
0
0
0
0
0
0
0
0
0
0
0
0
0
0
0
0
0
0
0
0
0
0
0
0
0
0
0
0
0
0
0
0
9.6415347e+14
8.942952e+14
8.3962451e+14
7.9669728e+14
9.7474686e+14
9.0412012e+14
8.4883311e+14
8.0541114e+14
9.8443382e+14
9.1310416e+14
8.5725286e+14
8.1337753e+14
9.9326228e+14
9.2129181e+14
8.6492562e+14
8.2063627e+14
7.6290839e+14
7.3629387e+14
7.1538522e+14
6.991024e+14
7.7122563e+14
7.4429457e+14
7.231357e+14
7.0665859e+14
7.7882827e+14
7.5160674e+14
7.3021811e+14
7.1356256e+14
7.8575458e+14
7.582674e+14
7.3666857e+14
7.1984969e+14
6.8667627e+14
6.7759352e+14
6.7155965e+14
6.6847684e+14
6.9408649e+14
6.8490081e+14
6.7880381e+14
6.7569631e+14
7.0085637e+14
6.9157615e+14
6.8542119e+14
6.8229107e+14
7.0702077e+14
6.9765401e+14
6.9144602e+14
6.8829524e+14
6.6843462e+14
6.7171262e+14
6.7879507e+14
6.9039788e+14
6.7566834e+14
6.7900192e+14
6.8618575e+14
6.9794261e+14
6.8227625e+14
6.8566092e+14
6.9293783e+14
7.04836e+14
6.882925e+14
6.9172394e+14
6.99086e+14
7.1111334e+14
7.0750988e+14
7.3145075e+14
7.6394937e+14
8.0724773e+14
7.1527103e+14
7.3950385e+14
7.7238744e+14
8.1618676e+14
7.2236279e+14
7.4686303e+14
7.8009901e+14
8.2435664e+14
7.2882131e+14
7.5356564e+14
7.8712309e+14
8.3179856e+14
0
0
0
0
0
0
0
0
0
0
0
0
0
0
0
0
0
0
0
0
0
0
0
0
0
0
0
0
0
0
0
0
0
0
0
0
0
0
0
0
0
0
0
0
0
0
0
0
0
0
0
0
0
0
0
0
0
0
0
0
0
0
0
0
0
0
0
0
0
0
0
0
0
0
0
0
0
0
0
0
0
0
0
0
0
0
0
0
0
0
0
0
0
0
0
0
0
0
0
0
0
0
0
0
0
0
0
0
0
0
0
0
0
0
0
0
0
0
0
0
0
0
0
0
0
0
0
0
0
0
0
0
0
0
0
0
0
0
0
0
0
0
0
0
0
0
0
0
0
0
0
0
0
0
0
0
0
0
0
0
0
0
0
0
0
0
0
0
0
0
0
0
0
0
0
0
0
0
0
0
0
0
0
0
0
0
0
0
0
0
0
0
0
0
0
0
0
0
0
0
0
0
0
0
0
0
0
0
0
0
0
0
0
0
0
0
0
0
0
0
0
0
0
0
0
0
0
0
0
0
0
0
0
0
0
0
0
0
0
0
1.0012767e+15
9.2872433e+14
8.7189017e+14
8.2722422e+14
1.008518e+15
9.3543971e+14
8.7818226e+14
8.3317541e+14
1.0150236e+15
9.4147271e+14
8.8383457e+14
8.385209e+14
1.0208276e+15
9.4685499e+14
8.8887686e+14
8.4328898e+14
7.9203996e+14
7.6431083e+14
7.4252047e+14
7.2555272e+14
7.9771704e+14
7.6976862e+14
7.4780457e+14
7.307018e+14
8.0281568e+14
7.7466965e+14
7.5254903e+14
7.3532448e+14
8.0736301e+14
7.7904019e+14
7.5677941e+14
7.3944583e+14
7.126119e+14
7.0316626e+14
6.9690996e+14
6.9374037e+14
7.1765947e+14
7.0814226e+14
7.0184213e+14
6.9865549e+14
7.2219059e+14
7.1260884e+14
7.0626918e+14
7.0306718e+14
7.2622996e+14
7.1659039e+14
7.1021533e+14
7.0699958e+14
6.9374867e+14
6.9722274e+14
7.0466235e+14
7.1680726e+14
6.9867382e+14
7.0218656e+14
7.0969645e+14
7.2194784e+14
7.0309456e+14
7.0664216e+14
7.1421536e+14
7.2656263e+14
7.0703506e+14
7.1061385e+14
7.1824369e+14
7.3067668e+14
7.3468004e+14
7.5964627e+14
7.9349578e+14
8.3855068e+14
7.3996982e+14
7.651368e+14
7.992504e+14
8.4464822e+14
7.4471887e+14
7.7006641e+14
8.0441743e+14
8.5012339e+14
7.4895288e+14
7.7446169e+14
8.0902464e+14
8.5500556e+14
0
0
0
0
0
0
0
0
0
0
0
0
0
0
0
0
0
0
0
0
0
0
0
0
0
0
0
0
0
0
0
0
0
0
0
0
0
0
0
0
0
0
0
0
0
0
0
0
0
0
0
0
0
0
0
0
0
0
0
0
0
0
0
0
0
0
0
0
0
0
0
0
0
0
0
0
0
0
0
0
0
0
0
0
0
0
0
0
0
0
0
0
0
0
0
0
0
0
0
0
0
0
0
0
0
0
0
0
0
0
0
0
0
0
0
0
0
0
0
0
0
0
0
0
0
0
0
0
0
0
0
0
0
0
0
0
0
0
0
0
0
0
0
0
0
0
0
0
0
0
0
0
0
0
0
0
0
0
0
0
0
0
0
0
0
0
0
0
0
0
0
0
0
0
0
0
0
0
0
0
0
0
0
0
0
0
0
0
0
0
0
0
0
0
0
0
0
0
0
0
0
0
0
0
0
0
0
0
0
0
0
0
0
0
0
0
0
0
0
0
0
0
0
0
0
0
0
0
0
0
0
0
0
0
0
0
0
0
0
0
1.0259608e+15
9.5161506e+14
8.9333595e+14
8.4750516e+14
1.0304505e+15
9.5577842e+14
8.9723581e+14
8.511922e+14
1.0343211e+15
9.593676e+14
9.0059761e+14
8.5437025e+14
1.0375937e+15
9.624022e+14
9.0343979e+14
8.5705681e+14
8.1138351e+14
7.8290388e+14
7.6051876e+14
7.4308841e+14
8.1489903e+14
7.8628188e+14
7.6378765e+14
7.4627238e+14
8.1792887e+14
7.8919284e+14
7.6660427e+14
7.4901553e+14
8.2048984e+14
7.9165302e+14
7.6898441e+14
7.5133334e+14
7.2979975e+14
7.2010887e+14
7.1370239e+14
7.1047443e+14
7.3291983e+14
7.231839e+14
7.1674984e+14
7.1351117e+14
7.356077e+14
7.2583279e+14
7.1937487e+14
7.1612693e+14
7.3787861e+14
7.2807061e+14
7.2159244e+14
7.1833663e+14
7.1051709e+14
7.1412355e+14
7.218036e+14
7.3431254e+14
7.1356013e+14
7.1719084e+14
7.2491491e+14
7.3749041e+14
7.1618134e+14
7.1983302e+14
7.2759511e+14
7.4022809e+14
7.1839566e+14
7.2206512e+14
7.2985945e+14
7.4254113e+14
7.5269501e+14
7.7834657e+14
8.1309707e+14
8.5932119e+14
7.5596595e+14
7.817425e+14
8.1665711e+14
8.6309396e+14
7.5878397e+14
7.8466838e+14
8.1972454e+14
8.6634479e+14
7.6116504e+14
7.8714071e+14
8.2231661e+14
8.6909194e+14
0
0
0
0
0
0
0
0
0
0
0
0
0
0
0
0
0
0
0
0
0
0
0
0
0
0
0
0
0
0
0
0
0
0
0
0
0
0
0
0
0
0
0
0
0
0
0
0
0
0
0
0
0
0
0
0
0
0
0
0
0
0
0
0
0
0
0
0
0
0
0
0
0
0
0
0
0
0
0
0
0
0
0
0
0
0
0
0
0
0
0
0
0
0
0
0
0
0
0
0
0
0
0
0
0
0
0
0
0
0
0
0
0
0
0
0
0
0
0
0
0
0
0
0
0
0
0
0
0
0
0
0
0
0
0
0
0
0
0
0
0
0
0
0
0
0
0
0
0
0
0
0
0
0
0
0
0
0
0
0
0
0
0
0
0
0
0
0
0
0
0
0
0
0
0
0
0
0
0
0
0
0
0
0
0
0
0
0
0
0
0
0
0
0
0
0
0
0
0
0
0
0
0
0
0
0
0
0
0
0
0
0
0
0
0
0
0
0
0
0
0
0
0
0
0
0
0
0
0
0
0
0
0
0
0
0
0
0
0
0
1.0402863e+15
9.6489897e+14
9.0577809e+14
8.5926684e+14
1.042414e+15
9.6687191e+14
9.0762567e+14
8.6101284e+14
1.0439887e+15
9.683322e+14
9.0899303e+14
8.623048e+14
1.0450198e+15
9.6928838e+14
9.098882e+14
8.6315032e+14
8.2259629e+14
7.9367628e+14
7.7094159e+14
7.5323903e+14
8.2426018e+14
7.9527419e+14
7.7248705e+14
7.547436e+14
8.254911e+14
7.96456e+14
7.736298e+14
7.5585589e+14
8.2629633e+14
7.9722876e+14
7.7437668e+14
7.5658258e+14
7.3974554e+14
7.2991022e+14
7.2341531e+14
7.20153e+14
7.4121934e+14
7.3136231e+14
7.2485412e+14
7.2158666e+14
7.4230869e+14
7.3243548e+14
7.259174e+14
7.226461e+14
7.4302016e+14
7.3313623e+14
7.2661159e+14
7.2333777e+14
7.2021585e+14
7.2389998e+14
7.317209e+14
7.4444274e+14
7.2165254e+14
7.2534833e+14
7.3319034e+14
7.4594399e+14
7.2271426e+14
7.2641872e+14
7.3427642e+14
7.4705373e+14
7.2340745e+14
7.2711768e+14
7.3498577e+14
7.4777869e+14
7.6312271e+14
7.8917356e+14
8.2444803e+14
8.7135095e+14
7.6466836e+14
7.907787e+14
8.261311e+14
8.7313485e+14
7.6581106e+14
7.9196552e+14
8.2737567e+14
8.7445404e+14
7.6655774e+14
7.927412e+14
8.2818923e+14
8.7531647e+14
0
0
0
0
0
0
0
0
0
0
0
0
0
0
0
0
0
0
0
0
0
0
0
0
0
0
0
0
0
0
0
0
0
0
0
0
0
0
0
0
0
0
0
0
0
0
0
0
0
0
0
0
0
0
0
0
0
0
0
0
0
0
0
0
0
0
0
0
0
0
0
0
0
0
0
0
0
0
0
0
0
0
0
0
0
0
0
0
0
0
0
0
0
0
0
0
0
0
0
0
0
0
0
0
0
0
0
0
0
0
0
0
0
0
0
0
0
0
0
0
0
0
0
0
0
0
0
0
0
0
0
0
0
0
0
0
0
0
0
0
0
0
0
0
0
0
0
0
0
0
0
0
0
0
0
0
0
0
0
0
0
0
0
0
0
0
0
0
0
0
0
0
0
0
0
0
0
0
0
0
0
0
0
0
0
0
0
0
0
0
0
0
0
0
0
0
0
0
0
0
0
0
0
0
0
0
0
0
0
0
0
0
0
0
0
0
0
0
0
0
0
0
0
0
0
0
0
0
0
0
0
0
0
0
0
0
0
0
0
0
1.0455135e+15
9.6974626e+14
9.1031665e+14
8.635546e+14
1.0454732e+15
9.6970907e+14
9.1028139e+14
8.6352051e+14
1.0448996e+15
9.6917735e+14
9.0978295e+14
8.6304853e+14
1.0437904e+15
9.6814909e+14
9.0881942e+14
8.6213684e+14
8.2668087e+14
7.9759728e+14
7.7473238e+14
7.5692824e+14
8.2664743e+14
7.9756418e+14
7.7469945e+14
7.5689539e+14
8.2619649e+14
7.9712992e+14
7.7427832e+14
7.5648442e+14
8.2532629e+14
7.9629279e+14
7.7346732e+14
7.5569371e+14
7.4335826e+14
7.33469e+14
7.2694112e+14
7.2366607e+14
7.4332544e+14
7.3343622e+14
7.269084e+14
7.2363341e+14
7.4292212e+14
7.330383e+14
7.2651382e+14
7.2324018e+14
7.4214666e+14
7.3227362e+14
7.2575578e+14
7.224848e+14
7.2373653e+14
7.2744964e+14
7.3532286e+14
7.4812346e+14
7.2370393e+14
7.2741705e+14
7.352902e+14
7.4809057e+14
7.2331002e+14
7.2702029e+14
7.3488816e+14
7.4768042e+14
7.2255324e+14
7.2625779e+14
7.3411516e+14
7.4689141e+14
7.6691309e+14
7.9311061e+14
8.2857689e+14
8.7572754e+14
7.6687974e+14
7.9307647e+14
8.2854149e+14
8.7569025e+14
7.6645812e+14
7.9263923e+14
8.2808352e+14
8.7520513e+14
7.6564655e+14
7.9179716e+14
8.2720116e+14
8.7427025e+14
0
0
0
0
0
0
0
0
0
0
0
0
0
0
0
0
0
0
0
0
0
0
0
0
0
0
0
0
0
0
0
0
0
0
0
0
0
0
0
0
0
0
0
0
0
0
0
0
0
0
0
0
0
0
0
0
0
0
0
0
0
0
0
0
0
0
0
0
0
0
0
0
0
0
0
0
0
0
0
0
0
0
0
0
0
0
0
0
0
0
0
0
0
0
0
0
0
0
0
0
0
0
0
0
0
0
0
0
0
0
0
0
0
0
0
0
0
0
0
0
0
0
0
0
0
0
0
0
0
0
0
0
0
0
0
0
0
0
0
0
0
0
0
0
0
0
0
0
0
0
0
0
0
0
0
0
0
0
0
0
0
0
0
0
0
0
0
0
0
0
0
0
0
0
0
0
0
0
0
0
0
0
0
0
0
0
0
0
0
0
0
0
0
0
0
0
0
0
0
0
0
0
0
0
0
0
0
0
0
0
0
0
0
0
0
0
0
0
0
0
0
0
0
0
0
0
0
0
0
0
0
0
0
0
0
0
0
0
0
0
1.0421406e+15
9.6661962e+14
9.0738643e+14
8.6078128e+14
1.0399424e+15
9.6458169e+14
9.0547714e+14
8.5897537e+14
1.0371853e+15
9.6202546e+14
9.030823e+14
8.5671029e+14
1.0338556e+15
9.5893839e+14
9.0019013e+14
8.5397484e+14
8.2403284e+14
7.9504893e+14
7.7226267e+14
7.5451954e+14
8.223099e+14
7.9339229e+14
7.7065851e+14
7.5295617e+14
8.2014901e+14
7.9131468e+14
7.6864683e+14
7.5099576e+14
8.1753943e+14
7.8880571e+14
7.6621752e+14
7.4862839e+14
7.4099542e+14
7.3113858e+14
7.2463071e+14
7.2136369e+14
7.3946273e+14
7.2962757e+14
7.2313304e+14
7.1987129e+14
7.3754089e+14
7.2773296e+14
7.2125518e+14
7.1800004e+14
7.3522011e+14
7.2544509e+14
7.1898754e+14
7.157404e+14
7.2142999e+14
7.2512594e+14
7.3296756e+14
7.4571983e+14
7.1993471e+14
7.2361916e+14
7.314397e+14
7.4415991e+14
7.1805984e+14
7.217298e+14
7.2952386e+14
7.4220382e+14
7.1579581e+14
7.1944826e+14
7.272103e+14
7.3984162e+14
7.6444125e+14
7.9054637e+14
8.2589035e+14
8.7288133e+14
7.6283631e+14
7.8888071e+14
8.2414467e+14
8.7103157e+14
7.6082369e+14
7.8679188e+14
8.2195545e+14
8.6871181e+14
7.583932e+14
7.8426936e+14
8.1931167e+14
8.6591039e+14
0
0
0
0
0
0
0
0
0
0
0
0
0
0
0
0
0
0
0
0
0
0
0
0
0
0
0
0
0
0
0
0
0
0
0
0
0
0
0
0
0
0
0
0
0
0
0
0
0
0
0
0
0
0
0
0
0
0
0
0
0
0
0
0
0
0
0
0
0
0
0
0
0
0
0
0
0
0
0
0
0
0
0
0
0
0
0
0
0
0
0
0
0
0
0
0
0
0
0
0
0
0
0
0
0
0
0
0
0
0
0
0
0
0
0
0
0
0
0
0
0
0
0
0
0
0
0
0
0
0
0
0
0
0
0
0
0
0
0
0
0
0
0
0
0
0
0
0
0
0
0
0
0
0
0
0
0
0
0
0
0
0
0
0
0
0
0
0
0
0
0
0
0
0
0
0
0
0
0
0
0
0
0
0
0
0
0
0
0
0
0
0
0
0
0
0
0
0
0
0
0
0
0
0
0
0
0
0
0
0
0
0
0
0
0
0
0
0
0
0
0
0
0
0
0
0
0
0
0
0
0
0
0
0
0
0
0
0
0
0
1.0299372e+15
9.5530536e+14
8.967864e+14
8.507555e+14
1.0254107e+15
9.5110853e+14
8.9285434e+14
8.4703631e+14
1.0202542e+15
9.463274e+14
8.8837465e+14
8.4279892e+14
1.0144425e+15
9.409387e+14
8.8332548e+14
8.3802254e+14
8.1446815e+14
7.8585281e+14
7.6335833e+14
7.4584205e+14
8.1091988e+14
7.8244114e+14
7.600548e+14
7.4262259e+14
8.0687698e+14
7.7855366e+14
7.5629032e+14
7.3895372e+14
8.023195e+14
7.7417104e+14
7.5204605e+14
7.3481698e+14
7.3248857e+14
7.2275225e+14
7.1631849e+14
7.1308075e+14
7.2933235e+14
7.1964068e+14
7.1323437e+14
7.1000745e+14
7.2573539e+14
7.1609449e+14
7.0971939e+14
7.0650479e+14
7.2167952e+14
7.120957e+14
7.057557e+14
7.0255494e+14
7.1313098e+14
7.1676282e+14
7.244872e+14
7.3706128e+14
7.1005171e+14
7.1365976e+14
7.2134065e+14
7.3384865e+14
7.0654224e+14
7.1012322e+14
7.1775462e+14
7.3018739e+14
7.0258473e+14
7.0613525e+14
7.1371094e+14
7.2605904e+14
7.555325e+14
7.8130035e+14
8.1619999e+14
8.6261321e+14
7.5222708e+14
7.7786986e+14
8.126047e+14
8.5880365e+14
7.4846019e+14
7.7396055e+14
8.0850773e+14
8.5446261e+14
7.4421289e+14
7.6955283e+14
8.0388856e+14
8.4956841e+14
0
0
0
0
0
0
0
0
0
0
0
0
0
0
0
0
0
0
0
0
0
0
0
0
0
0
0
0
0
0
0
0
0
0
0
0
0
0
0
0
0
0
0
0
0
0
0
0
0
0
0
0
0
0
0
0
0
0
0
0
0
0
0
0
0
0
0
0
0
0
0
0
0
0
0
0
0
0
0
0
0
0
0
0
0
0
0
0
0
0
0
0
0
0
0
0
0
0
0
0
0
0
0
0
0
0
0
0
0
0
0
0
0
0
0
0
0
0
0
0
0
0
0
0
0
0
0
0
0
0
0
0
0
0
0
0
0
0
0
0
0
0
0
0
0
0
0
0
0
0
0
0
0
0
0
0
0
0
0
0
0
0
0
0
0
0
0
0
0
0
0
0
0
0
0
0
0
0
0
0
0
0
0
0
0
0
0
0
0
0
0
0
0
0
0
0
0
0
0
0
0
0
0
0
0
0
0
0
0
0
0
0
0
0
0
0
0
0
0
0
0
0
0
0
0
0
0
0
0
0
0
0
0
0
0
0
0
0
0
0
1.0079477e+15
9.3491648e+14
8.7768239e+14
8.3268391e+14
1.0007388e+15
9.2823199e+14
8.7141833e+14
8.2675731e+14
9.9278198e+14
9.2085372e+14
8.6450367e+14
8.2021452e+14
9.8404027e+14
9.1274742e+14
8.5690615e+14
8.1302484e+14
7.9722509e+14
7.6927165e+14
7.4730091e+14
7.301917e+14
7.9156903e+14
7.6383154e+14
7.4203156e+14
7.2505499e+14
7.8532421e+14
7.5782444e+14
7.3621237e+14
7.1938172e+14
7.7846111e+14
7.5122175e+14
7.2981543e+14
7.1314452e+14
7.1714436e+14
7.0762416e+14
7.0132327e+14
6.9813794e+14
7.1210737e+14
7.0265758e+14
6.9639996e+14
6.932317e+14
7.0654378e+14
6.9717141e+14
6.9096139e+14
6.8781192e+14
7.0042663e+14
6.9113899e+14
6.8498105e+14
6.8185213e+14
6.9815918e+14
7.0167572e+14
7.0918928e+14
7.2144288e+14
6.9324348e+14
6.967224e+14
7.0416711e+14
7.1631599e+14
6.8781329e+14
6.9125078e+14
6.9861969e+14
7.106532e+14
6.8184209e+14
6.852342e+14
6.9252003e+14
7.0442703e+14
7.3946394e+14
7.6462475e+14
7.9872429e+14
8.440968e+14
7.3418985e+14
7.5915199e+14
7.9298949e+14
8.3802095e+14
7.2836479e+14
7.5310787e+14
7.866563e+14
8.3131136e+14
7.2196064e+14
7.4646329e+14
7.7969432e+14
8.2393593e+14
0
0
0
0
0
0
0
0
0
0
0
0
0
0
0
0
0
0
0
0
0
0
0
0
0
0
0
0
0
0
0
0
0
0
0
0
0
0
0
0
0
0
0
0
0
0
0
0
0
0
0
0
0
0
0
0
0
0
0
0
0
0
0
0
0
0
0
0
0
0
0
0
0
0
0
0
0
0
0
0
0
0
0
0
0
0
0
0
0
0
0
0
0
0
0
0
0
0
0
0
0
0
0
0
0
0
0
0
0
0
0
0
0
0
0
0
0
0
0
0
0
0
0
0
0
0
0
0
0
0
0
0
0
0
0
0
0
0
0
0
0
0
0
0
0
0
0
0
0
0
0
0
0
0
0
0
0
0
0
0
0
0
0
0
0
0
0
0
0
0
0
0
0
0
0
0
0
0
0
0
0
0
0
0
0
0
0
0
0
0
0
0
0
0
0
0
0
0
0
0
0
0
0
0
0
0
0
0
0
0
0
0
0
0
0
0
0
0
0
0
0
0
0
0
0
0
0
0
0
0
0
0
0
0
0
0
0
0
0
0
9.7447387e+14
9.0387611e+14
8.4859096e+14
8.0515509e+14
9.6404011e+14
8.9420014e+14
8.3952074e+14
7.9656969e+14
9.5269354e+14
8.8367727e+14
8.296557e+14
7.8723068e+14
9.403861e+14
8.7226281e+14
8.189537e+14
7.7709786e+14
7.7094782e+14
7.4399254e+14
7.2281055e+14
7.0631374e+14
7.6275009e+14
7.3610357e+14
7.1516529e+14
6.9885753e+14
7.5383139e+14
7.2751937e+14
7.0684496e+14
6.9074182e+14
7.4415296e+14
7.1820231e+14
6.9781278e+14
6.8193042e+14
6.9372665e+14
6.8453134e+14
6.7843017e+14
6.7532364e+14
6.8641246e+14
6.7731735e+14
6.7127779e+14
6.6819557e+14
6.784504e+14
6.6946371e+14
6.6349079e+14
6.6043484e+14
6.6980474e+14
6.6093496e+14
6.5503388e+14
6.5200621e+14
6.7530115e+14
6.7864375e+14
6.8583889e+14
6.9760775e+14
6.6815953e+14
6.7144831e+14
6.7854481e+14
6.9016334e+14
6.6038409e+14
6.6361449e+14
6.7060402e+14
6.8205943e+14
6.5193951e+14
6.5510677e+14
6.6198057e+14
6.7325944e+14
7.1494689e+14
7.3918672e+14
7.7207062e+14
8.1585983e+14
7.0729072e+14
7.3124423e+14
7.6374975e+14
8.0704563e+14
6.9895694e+14
7.2259942e+14
7.546937e+14
7.9745311e+14
6.8990802e+14
7.1321351e+14
7.4486196e+14
7.8703947e+14
0
0
0
0
0
0
0
0
0
0
0
0
0
0
0
0
0
0
0
0
0
0
0
0
0
0
0
0
0
0
0
0
0
0
0
0
0
0
0
0
0
0
0
0
0
0
0
0
0
0
0
0
0
0
0
0
0
0
0
0
0
0
0
0
0
0
0
0
0
0
0
0
0
0
0
0
0
0
0
0
0
0
0
0
0
0
0
0
0
0
0
0
0
0
0
0
0
0
0
0
0
0
0
0
0
0
0
0
0
0
0
0
0
0
0
0
0
0
0
0
0
0
0
0
0
0
0
0
0
0
0
0
0
0
0
0
0
0
0
0
0
0
0
0
0
0
0
0
0
0
0
0
0
0
0
0
0
0
0
0
0
0
0
0
0
0
0
0
0
0
0
0
0
0
0
0
0
0
0
0
0
0
0
0
0
0
0
0
0
0
0
0
0
0
0
0
0
0
0
0
0
0
0
0
0
0
0
0
0
0
0
0
0
0
0
0
0
0
0
0
0
0
0
0
0
0
0
0
0
0
0
0
0
0
0
0
0
0
0
0
9.2706738e+14
8.5990986e+14
8.0737048e+14
7.6612896e+14
9.1268482e+14
8.4656952e+14
7.9485985e+14
7.5427981e+14
8.9718429e+14
8.3219135e+14
7.8137412e+14
7.4150474e+14
8.8051053e+14
8.167238e+14
7.6686446e+14
7.2775689e+14
7.3367402e+14
7.0811271e+14
6.8802988e+14
6.7238511e+14
7.2235193e+14
6.9720903e+14
6.7745557e+14
6.6206574e+14
7.1014246e+14
6.8544815e+14
6.6604747e+14
6.509305e+14
6.9700021e+14
6.7278563e+14
6.5376186e+14
6.3893612e+14
6.6043769e+14
6.516936e+14
6.4586972e+14
6.4287236e+14
6.5030951e+14
6.4170015e+14
6.3595894e+14
6.3299393e+14
6.3937874e+14
6.3091335e+14
6.2526034e+14
6.2232963e+14
6.2760237e+14
6.192903e+14
6.1373103e+14
6.1083642e+14
6.4278833e+14
6.4588741e+14
6.5263628e+14
6.6372448e+14
6.3289106e+14
6.359166e+14
6.4253081e+14
6.5341349e+14
6.222062e+14
6.2515247e+14
6.3162171e+14
6.4228317e+14
6.106904e+14
6.135512e+14
6.1986452e+14
6.3028812e+14
6.8010409e+14
7.0304525e+14
7.3421143e+14
7.7575915e+14
6.6950302e+14
6.9205105e+14
7.2269655e+14
7.6356396e+14
6.5806036e+14
6.801849e+14
7.102692e+14
7.5040298e+14
6.4572946e+14
6.6739843e+14
6.9687877e+14
7.3622261e+14
0
0
0
0
0
0
0
0
0
0
0
0
0
0
0
0
0
0
0
0
0
0
0
0
0
0
0
0
0
0
0
0
0
0
0
0
0
0
0
0
0
0
0
0
0
0
0
0
0
0
0
0
0
0
0
0
0
0
0
0
0
0
0
0
0
0
0
0
0
0
0
0
0
0
0
0
0
0
0
0
0
0
0
0
0
0
0
0
0
0
0
0
0
0
0
0
0
0
0
0
0
0
0
0
0
0
0
0
0
0
0
0
0
0
0
0
0
0
0
0
0
0
0
0
0
0
0
0
0
0
0
0
0
0
0
0
0
0
0
0
0
0
0
0
0
0
0
0
0
0
0
0
0
0
0
0
0
0
0
0
0
0
0
0
0
0
0
0
0
0
0
0
0
0
0
0
0
0
0
0
0
0
0
0
0
0
0
0
0
0
0
0
0
0
0
0
0
0
0
0
0
0
0
0
0
0
0
0
0
0
0
0
0
0
0
0
0
0
0
0
0
0
0
0
0
0
0
0
0
0
0
0
0
0
0
0
0
0
0
0
8.62608e+14
8.0011498e+14
7.5128159e+14
7.1298885e+14
8.4342186e+14
7.8231352e+14
7.3457659e+14
6.9715336e+14
8.2289931e+14
7.6326979e+14
7.1670195e+14
6.8020429e+14
8.0099136e+14
7.4293749e+14
6.9761307e+14
6.6209794e+14
6.8287904e+14
6.5917625e+14
6.4055406e+14
6.2603824e+14
6.6773279e+14
6.4457452e+14
6.2637895e+14
6.1219188e+14
6.5151616e+14
6.2893551e+14
6.1119168e+14
5.9735203e+14
6.3418581e+14
6.1221586e+14
5.9494857e+14
5.8147446e+14
6.149362e+14
6.0678681e+14
6.0132664e+14
5.9846965e+14
6.0133519e+14
5.9335761e+14
5.8800159e+14
5.8518331e+14
5.86754e+14
5.7895691e+14
5.7370949e+14
5.7093025e+14
5.7114766e+14
5.6353888e+14
5.5840352e+14
5.5566258e+14
5.982986e+14
6.0106715e+14
6.0721277e+14
6.1738082e+14
5.8498418e+14
5.8765293e+14
5.9361812e+14
6.0351168e+14
5.7069915e+14
5.7325953e+14
5.7903031e+14
5.8862892e+14
5.5539437e+14
5.5783641e+14
5.633972e+14
5.7267855e+14
6.3246137e+14
6.5364085e+14
6.8247199e+14
7.2096639e+14
6.1820489e+14
6.3885889e+14
6.6699295e+14
7.0457496e+14
6.029064e+14
6.2299658e+14
6.503827e+14
6.8698558e+14
5.8650964e+14
6.0599494e+14
6.3257889e+14
6.6813169e+14
0
0
0
0
0
0
0
0
0
0
0
0
0
0
0
0
0
0
0
0
0
0
0
0
0
0
0
0
0
0
0
0
0
0
0
0
0
0
0
0
0
0
0
0
0
0
0
0
0
0
0
0
0
0
0
0
0
0
0
0
0
0
0
0
0
0
0
0
0
0
0
0
0
0
0
0
0
0
0
0
0
0
0
0
0
0
0
0
0
0
0
0
0
0
0
0
0
0
0
0
0
0
0
0
0
0
0
0
0
0
0
0
0
0
0
0
0
0
0
0
0
0
0
0
0
0
0
0
0
0
0
0
0
0
0
0
0
0
0
0
0
0
0
0
0
0
0
0
0
0
0
0
0
0
0
0
0
0
0
0
0
0
0
0
0
0
0
0
0
0
0
0
0
0
0
0
0
0
0
0
0
0
0
0
0
0
0
0
0
0
0
0
0
0
0
0
0
0
0
0
0
0
0
0
0
0
0
0
0
0
0
0
0
0
0
0
0
0
0
0
0
0
0
0
0
0
0
0
0
0
0
0
0
0
0
0
0
0
0
0
7.7765513e+14
7.2127571e+14
6.7727004e+14
6.4279475e+14
7.5285696e+14
6.9825178e+14
6.5564027e+14
6.2226154e+14
7.2657627e+14
6.7384472e+14
6.3270165e+14
6.0047448e+14
6.9881084e+14
6.4805012e+14
6.08447e+14
5.7742314e+14
6.1570195e+14
5.9437515e+14
5.7760829e+14
5.6451671e+14
5.9603034e+14
5.7537774e+14
5.5913349e+14
5.4643952e+14
5.75145e+14
5.5519513e+14
5.3949291e+14
5.2720865e+14
5.5303188e+14
5.3380934e+14
5.1866433e+14
5.0679742e+14
5.5447246e+14
5.4705836e+14
5.42037e+14
5.3933194e+14
5.3668703e+14
5.2947181e+14
5.2456404e+14
5.2189001e+14
5.1775398e+14
5.1073849e+14
5.0594043e+14
5.0328896e+14
4.9764193e+14
4.9082213e+14
4.8612482e+14
4.8348216e+14
5.3901971e+14
5.413315e+14
5.4666459e+14
5.5560393e+14
5.2152426e+14
5.2369116e+14
5.2877588e+14
5.3734526e+14
5.0285645e+14
5.0485989e+14
5.0967143e+14
5.1783847e+14
4.8296413e+14
4.847798e+14
4.8928739e+14
4.9701344e+14
5.6895521e+14
5.8779129e+14
6.1351492e+14
6.4794189e+14
5.5017972e+14
5.6831817e+14
5.9311859e+14
6.2633836e+14
5.3011432e+14
5.4750143e+14
5.7130978e+14
6.0323411e+14
5.0868221e+14
5.2525714e+14
5.4799672e+14
5.7852864e+14
0
0
0
0
0
0
0
0
0
0
0
0
0
0
0
0
0
0
0
0
0
0
0
0
0
0
0
0
0
0
0
0
0
0
0
0
0
0
0
0
0
0
0
0
0
0
0
0
0
0
0
0
0
0
0
0
0
0
0
0
0
0
0
0
0
0
0
0
0
0
0
0
0
0
0
0
0
0
0
0
0
0
0
0
0
0
0
0
0
0
0
0
0
0
0
0
0
0
0
0
0
0
0
0
0
0
0
0
0
0
0
0
0
0
0
0
0
0
0
0
0
0
0
0
0
0
0
0
0
0
0
0
0
0
0
0
0
0
0
0
0
0
0
0
0
0
0
0
0
0
0
0
0
0
0
0
0
0
0
0
0
0
0
0
0
0
0
0
0
0
0
0
0
0
0