/*--------------------------------*- C++ -*----------------------------------*\
| =========                 |                                                 |
| \\      /  F ield         | OpenFOAM: The Open Source CFD Toolbox           |
|  \\    /   O peration     | Version:  1.4.1-dev                             |
|   \\  /    A nd           | Web:      http://www.openfoam.org               |
|    \\/     M anipulation  |                                                 |
\*---------------------------------------------------------------------------*/

FoamFile
{
    version 2.0;
    format ascii;

    root "/home/cliffoi/OpenFOAM/cliffoi-1.4.1-dev/run/diffusionFoam";
    case "oecd_simplified_2G";
    instance "0";
    local "";

    class volScalarField;
    object dn_lamC4;
}

// * * * * * * * * * * * * * * * * * * * * * * * * * * * * * * * * * * * * * //

dimensions      [0 -3 -1 0 0 0 0];

internalField   nonuniform List<scalar> 
9280
(
0
0
0
0
0
0
0
0
0
0
0
0
0
0
0
0
0
0
0
0
0
0
0
0
0
0
0
0
0
0
0
0
0
0
0
0
0
0
0
0
0
0
0
0
0
0
0
0
0
0
0
0
0
0
0
0
0
0
0
0
0
0
0
0
0
0
0
0
0
0
0
0
0
0
0
0
0
0
0
0
0
0
0
0
0
0
0
0
0
0
0
0
0
0
0
0
0
0
0
0
0
0
0
0
0
0
0
0
0
0
0
0
0
0
0
0
0
0
0
0
0
0
0
0
0
0
0
0
0
0
0
0
0
0
0
0
0
0
0
0
0
0
0
0
0
0
0
0
0
0
0
0
0
0
0
0
0
0
0
0
0
0
0
0
0
0
0
0
0
0
0
0
0
0
0
0
0
0
0
0
0
0
0
0
0
0
0
0
0
0
0
0
0
0
0
0
0
0
0
0
0
0
0
0
0
0
0
0
0
0
0
0
0
0
0
0
0
0
0
0
0
0
0
0
0
0
0
0
0
0
0
0
0
0
0
0
0
0
0
0
0
0
0
0
0
0
0
0
0
0
0
0
0
0
0
0
0
0
0
0
0
0
0
0
0
0
0
0
0
0
0
0
0
0
0
0
0
0
0
0
0
0
0
0
0
0
0
0
0
0
0
0
0
0
0
0
0
0
0
0
0
0
0
0
0
0
0
0
0
0
0
0
0
0
0
0
0
0
0
0
0
0
0
0
0
0
0
0
0
0
0
0
0
0
0
0
0
0
0
0
0
0
0
0
0
0
0
0
0
0
0
0
0
0
0
0
0
0
0
0
0
0
0
0
0
0
0
0
0
0
0
0
0
0
0
0
0
0
0
0
0
0
0
0
0
0
0
0
0
0
0
0
0
0
0
0
0
0
0
0
0
0
0
0
0
0
0
0
0
0
0
0
0
0
0
0
0
0
0
0
0
0
0
0
0
0
0
0
0
0
0
0
0
0
0
0
0
0
0
0
0
0
0
0
0
0
0
0
0
0
0
0
0
0
0
0
0
0
0
0
0
0
0
0
0
0
0
0
0
0
0
0
0
0
0
0
0
0
0
0
0
0
0
0
0
0
0
0
0
0
0
0
0
0
0
0
0
0
0
0
0
0
0
0
0
0
0
0
0
0
0
0
0
0
0
0
0
0
0
0
0
0
0
0
0
0
0
0
0
0
0
0
0
0
0
0
0
0
0
0
0
0
0
0
0
0
0
0
0
0
0
0
0
0
0
0
0
0
0
0
0
0
0
0
0
0
0
0
0
0
0
0
0
0
0
0
0
0
0
0
0
0
0
0
0
0
0
0
0
0
0
0
0
0
0
0
0
0
0
0
0
0
0
0
0
0
0
0
0
0
0
0
0
0
0
0
0
0
0
0
0
0
0
0
0
0
0
0
0
0
0
0
0
0
0
0
0
0
0
0
0
0
0
0
0
0
0
0
0
0
0
0
0
0
0
0
0
0
0
0
0
0
0
0
0
0
0
0
0
0
0
0
0
0
0
0
0
0
0
0
0
0
0
0
0
0
0
0
0
0
0
0
0
0
0
0
0
0
0
0
0
0
0
0
0
0
0
0
0
0
0
0
0
0
0
0
0
0
0
0
0
0
0
0
0
0
0
0
0
0
0
0
0
0
0
0
0
0
0
0
0
0
0
0
0
0
0
0
0
0
0
0
0
0
0
0
0
0
0
0
0
0
0
0
0
0
0
0
0
0
0
0
0
0
0
0
0
0
0
0
0
0
0
0
0
0
0
0
0
0
0
0
0
0
0
0
0
0
0
0
0
0
0
0
0
0
0
0
0
0
0
0
0
0
0
0
0
0
0
0
0
0
0
0
0
0
0
0
0
0
0
0
0
0
0
0
0
0
0
0
0
0
0
0
0
0
0
0
0
0
0
0
0
0
0
0
0
0
0
0
0
0
0
0
0
0
0
0
0
0
0
0
0
0
0
0
0
0
0
0
0
0
0
0
0
0
0
0
0
0
0
0
0
0
0
0
0
0
0
0
0
0
0
0
0
0
0
0
0
0
0
0
0
0
0
0
0
0
0
0
0
0
0
0
0
0
0
0
0
0
0
0
0
0
0
0
0
0
0
0
0
0
0
0
0
0
0
0
0
0
0
0
0
0
0
0
0
0
0
0
0
0
0
0
0
0
0
0
0
0
0
0
0
0
0
0
0
0
0
0
0
0
0
0
0
0
0
0
0
0
0
0
0
0
0
0
0
0
0
0
0
0
0
0
0
0
0
0
0
0
0
0
0
0
0
0
0
0
0
0
0
0
0
0
0
0
0
0
0
0
0
0
0
0
0
0
0
0
0
0
0
0
0
0
0
0
0
0
0
0
0
0
0
0
0
0
4.5992988e+14
4.396541e+14
4.2439631e+14
4.126688e+14
4.6990568e+14
4.4213118e+14
4.2095729e+14
4.0465409e+14
4.9301338e+14
4.6036026e+14
4.3522962e+14
4.1576643e+14
5.2090973e+14
4.8469158e+14
4.5667522e+14
4.3489459e+14
4.0341701e+14
3.9588903e+14
3.8954991e+14
3.8402412e+14
3.9194024e+14
3.8187218e+14
3.7376195e+14
3.6711725e+14
4.0057751e+14
3.8862266e+14
3.7913351e+14
3.7155334e+14
4.1786847e+14
4.0448647e+14
3.9392441e+14
3.8558198e+14
3.7905673e+14
3.7448739e+14
3.7023366e+14
3.6628141e+14
3.6159825e+14
3.5698749e+14
3.5316984e+14
3.5012076e+14
3.6549325e+14
3.607009e+14
3.5703951e+14
3.544751e+14
3.7903717e+14
3.7401387e+14
3.7035988e+14
3.6803357e+14
3.6268133e+14
3.5955107e+14
3.5708319e+14
3.5556028e+14
3.4790168e+14
3.4666181e+14
3.4664645e+14
3.4821218e+14
3.5307108e+14
3.5298927e+14
3.5449751e+14
3.5798376e+14
3.6709788e+14
3.6772116e+14
3.7018464e+14
3.7489672e+14
3.5537932e+14
3.5708948e+14
3.6145046e+14
3.6952395e+14
3.5184982e+14
3.5821633e+14
3.6817707e+14
3.8285929e+14
3.6397751e+14
3.7317935e+14
3.8650025e+14
4.051121e+14
3.8241482e+14
3.9347608e+14
4.0903852e+14
4.3033525e+14
0
0
0
0
0
0
0
0
0
0
0
0
0
0
0
0
0
0
0
0
0
0
0
0
0
0
0
0
0
0
0
0
0
0
0
0
0
0
0
0
0
0
0
0
0
0
0
0
0
0
0
0
0
0
0
0
0
0
0
0
0
0
0
0
0
0
0
0
0
0
0
0
0
0
0
0
0
0
0
0
0
0
0
0
0
0
0
0
0
0
0
0
0
0
0
0
0
0
0
0
0
0
0
0
0
0
0
0
0
0
0
0
0
0
0
0
0
0
0
0
0
0
0
0
0
0
0
0
0
0
0
0
0
0
0
0
0
0
0
0
0
0
0
0
0
0
0
0
0
0
0
0
0
0
0
0
0
0
0
0
0
0
0
0
0
0
0
0
0
0
0
0
0
0
0
0
0
0
0
0
0
0
0
0
0
0
0
0
0
0
0
0
0
0
0
0
0
0
0
0
0
0
0
0
0
0
0
0
0
0
0
0
0
0
0
0
0
0
0
0
0
0
0
0
0
0
0
0
0
0
0
0
0
0
0
0
0
0
0
0
5.4999416e+14
5.109116e+14
4.8059666e+14
4.5697733e+14
5.7867544e+14
5.3713808e+14
5.0486761e+14
4.7969158e+14
6.0625713e+14
5.625315e+14
5.2852554e+14
5.0197244e+14
6.3245007e+14
5.8672987e+14
5.5114533e+14
5.2334147e+14
4.3849152e+14
4.2396682e+14
4.1253158e+14
4.0354944e+14
4.5997182e+14
4.4447819e+14
4.322954e+14
4.2275448e+14
4.8116249e+14
4.6481142e+14
4.5196316e+14
4.4191841e+14
5.0154173e+14
4.8441117e+14
4.7095557e+14
4.6044725e+14
3.9657163e+14
3.9130312e+14
3.8757955e+14
3.8535327e+14
4.1538283e+14
4.0986881e+14
4.0603768e+14
4.0383702e+14
4.3418255e+14
4.284288e+14
4.2447315e+14
4.2225924e+14
4.5237113e+14
4.4638638e+14
4.4230053e+14
4.400538e+14
3.8468708e+14
3.8575508e+14
3.8885045e+14
3.9440047e+14
4.0333026e+14
4.046976e+14
4.0824429e+14
4.1441657e+14
4.2185163e+14
4.2343693e+14
4.2733253e+14
4.3400337e+14
4.3971219e+14
4.4146871e+14
4.456526e+14
4.5274687e+14
4.0298968e+14
4.1539235e+14
4.3261638e+14
4.5596132e+14
4.2382607e+14
4.3728425e+14
4.5584891e+14
4.8088567e+14
4.4408763e+14
4.5843297e+14
4.7814543e+14
5.046542e+14
4.634152e+14
4.785398e+14
4.992726e+14
5.2710296e+14
0
0
0
0
0
0
0
0
0
0
0
0
0
0
0
0
0
0
0
0
0
0
0
0
0
0
0
0
0
0
0
0
0
0
0
0
0
0
0
0
0
0
0
0
0
0
0
0
0
0
0
0
0
0
0
0
0
0
0
0
0
0
0
0
0
0
0
0
0
0
0
0
0
0
0
0
0
0
0
0
0
0
0
0
0
0
0
0
0
0
0
0
0
0
0
0
0
0
0
0
0
0
0
0
0
0
0
0
0
0
0
0
0
0
0
0
0
0
0
0
0
0
0
0
0
0
0
0
0
0
0
0
0
0
0
0
0
0
0
0
0
0
0
0
0
0
0
0
0
0
0
0
0
0
0
0
0
0
0
0
0
0
0
0
0
0
0
0
0
0
0
0
0
0
0
0
0
0
0
0
0
0
0
0
0
0
0
0
0
0
0
0
0
0
0
0
0
0
0
0
0
0
0
0
0
0
0
0
0
0
0
0
0
0
0
0
0
0
0
0
0
0
0
0
0
0
0
0
0
0
0
0
0
0
0
0
0
0
0
0
6.5715323e+14
6.0959336e+14
5.7255362e+14
5.4359707e+14
6.8035362e+14
6.3108699e+14
5.9269671e+14
5.6266982e+14
7.0208005e+14
6.512259e+14
6.1157837e+14
5.805542e+14
7.2238127e+14
6.7004935e+14
6.2923023e+14
5.9727572e+14
5.2088483e+14
5.0303473e+14
4.8901696e+14
4.7807738e+14
5.3910964e+14
5.2059009e+14
5.0604822e+14
4.9470527e+14
5.5620316e+14
5.3705848e+14
5.2202646e+14
5.1030544e+14
5.721861e+14
5.5245695e+14
5.3696609e+14
5.2489063e+14
4.6968178e+14
4.6347629e+14
4.5926063e+14
4.5697197e+14
4.860092e+14
4.7959401e+14
4.752522e+14
4.7291811e+14
5.0132683e+14
4.9471334e+14
4.9025073e+14
4.8787076e+14
5.1564661e+14
5.0884627e+14
5.0426907e+14
5.0184438e+14
4.566778e+14
4.5857739e+14
4.6301127e+14
4.7047965e+14
4.7266075e+14
4.7468527e+14
4.7934291e+14
4.8715002e+14
4.8764386e+14
4.8978069e+14
4.9464251e+14
5.0276075e+14
5.0164395e+14
5.0388357e+14
5.0893379e+14
5.1734008e+14
4.8167033e+14
4.9749816e+14
5.1915827e+14
5.4819655e+14
4.9881706e+14
5.1528947e+14
5.3780283e+14
5.6795588e+14
5.1486703e+14
5.3193533e+14
5.5523892e+14
5.8642588e+14
5.2985376e+14
5.4747532e+14
5.7151313e+14
6.0366112e+14
0
0
0
0
0
0
0
0
0
0
0
0
0
0
0
0
0
0
0
0
0
0
0
0
0
0
0
0
0
0
0
0
0
0
0
0
0
0
0
0
0
0
0
0
0
0
0
0
0
0
0
0
0
0
0
0
0
0
0
0
0
0
0
0
0
0
0
0
0
0
0
0
0
0
0
0
0
0
0
0
0
0
0
0
0
0
0
0
0
0
0
0
0
0
0
0
0
0
0
0
0
0
0
0
0
0
0
0
0
0
0
0
0
0
0
0
0
0
0
0
0
0
0
0
0
0
0
0
0
0
0
0
0
0
0
0
0
0
0
0
0
0
0
0
0
0
0
0
0
0
0
0
0
0
0
0
0
0
0
0
0
0
0
0
0
0
0
0
0
0
0
0
0
0
0
0
0
0
0
0
0
0
0
0
0
0
0
0
0
0
0
0
0
0
0
0
0
0
0
0
0
0
0
0
0
0
0
0
0
0
0
0
0
0
0
0
0
0
0
0
0
0
0
0
0
0
0
0
0
0
0
0
0
0
0
0
0
0
0
0
7.4131544e+14
6.876082e+14
6.4569739e+14
6.1287498e+14
7.5894472e+14
7.0395846e+14
6.6103115e+14
6.2739965e+14
7.7533253e+14
7.1915809e+14
6.7528527e+14
6.409003e+14
7.9054186e+14
7.33265e+14
6.8851385e+14
6.5342813e+14
5.870956e+14
5.6682002e+14
5.5089974e+14
5.3849221e+14
6.0097652e+14
5.8019046e+14
5.6386866e+14
5.5115041e+14
6.1387703e+14
5.9261462e+14
5.7591785e+14
5.6290925e+14
6.2584614e+14
6.0413986e+14
5.8709344e+14
5.7381394e+14
5.2899926e+14
5.2202334e+14
5.1733814e+14
5.1487074e+14
5.4142433e+14
5.3428388e+14
5.294973e+14
5.2698959e+14
5.5296524e+14
5.4567093e+14
5.4078953e+14
5.3824407e+14
5.6366656e+14
5.5622866e+14
5.5125881e+14
5.4867817e+14
5.1469409e+14
5.1702875e+14
5.2225386e+14
5.3092794e+14
5.2683479e+14
5.292578e+14
5.3464576e+14
5.435692e+14
5.3810956e+14
5.4061494e+14
5.4615467e+14
5.5531041e+14
5.4856264e+14
5.5114486e+14
5.5682601e+14
5.6619803e+14
5.4382053e+14
5.6195677e+14
5.8667759e+14
6.1971948e+14
5.5681458e+14
5.7542984e+14
6.0078609e+14
6.3465927e+14
5.6888422e+14
5.8794515e+14
6.138922e+14
6.4853785e+14
5.8007738e+14
5.9955256e+14
6.2604836e+14
6.6141102e+14
0
0
0
0
0
0
0
0
0
0
0
0
0
0
0
0
0
0
0
0
0
0
0
0
0
0
0
0
0
0
0
0
0
0
0
0
0
0
0
0
0
0
0
0
0
0
0
0
0
0
0
0
0
0
0
0
0
0
0
0
0
0
0
0
0
0
0
0
0
0
0
0
0
0
0
0
0
0
0
0
0
0
0
0
0
0
0
0
0
0
0
0
0
0
0
0
0
0
0
0
0
0
0
0
0
0
0
0
0
0
0
0
0
0
0
0
0
0
0
0
0
0
0
0
0
0
0
0
0
0
0
0
0
0
0
0
0
0
0
0
0
0
0
0
0
0
0
0
0
0
0
0
0
0
0
0
0
0
0
0
0
0
0
0
0
0
0
0
0
0
0
0
0
0
0
0
0
0
0
0
0
0
0
0
0
0
0
0
0
0
0
0
0
0
0
0
0
0
0
0
0
0
0
0
0
0
0
0
0
0
0
0
0
0
0
0
0
0
0
0
0
0
0
0
0
0
0
0
0
0
0
0
0
0
0
0
0
0
0
0
8.0463435e+14
7.4633611e+14
7.0077022e+14
6.6503375e+14
8.176696e+14
7.5842655e+14
7.1210613e+14
6.7576635e+14
8.2970479e+14
7.695893e+14
7.2257135e+14
6.8567326e+14
8.4079437e+14
7.7987483e+14
7.3221332e+14
6.9479962e+14
6.3693239e+14
6.1481314e+14
5.974412e+14
5.839094e+14
6.47183e+14
6.2468022e+14
6.0700576e+14
5.9323939e+14
6.5664346e+14
6.3378514e+14
6.1583008e+14
6.0184606e+14
6.6535714e+14
6.4216993e+14
6.2395516e+14
6.0976962e+14
5.7357256e+14
5.6600092e+14
5.6094873e+14
5.5833544e+14
5.827264e+14
5.7503044e+14
5.6990178e+14
5.6725824e+14
5.911696e+14
5.833583e+14
5.7815874e+14
5.7548726e+14
5.9894179e+14
5.9102372e+14
5.8575858e+14
5.8306132e+14
5.5823771e+14
5.6089156e+14
5.6670439e+14
5.7627755e+14
5.671772e+14
5.6989775e+14
5.75833e+14
5.8559295e+14
5.7542184e+14
5.782044e+14
5.8425324e+14
5.9418632e+14
5.8301048e+14
5.8585055e+14
5.9200458e+14
6.0209779e+14
5.9044077e+14
6.1030051e+14
6.3730533e+14
6.7333262e+14
6.0001952e+14
6.202357e+14
6.4771193e+14
6.843543e+14
6.0885676e+14
6.2940272e+14
6.5731476e+14
6.9452536e+14
6.1699359e+14
6.3784402e+14
6.6615814e+14
7.0389262e+14
0
0
0
0
0
0
0
0
0
0
0
0
0
0
0
0
0
0
0
0
0
0
0
0
0
0
0
0
0
0
0
0
0
0
0
0
0
0
0
0
0
0
0
0
0
0
0
0
0
0
0
0
0
0
0
0
0
0
0
0
0
0
0
0
0
0
0
0
0
0
0
0
0
0
0
0
0
0
0
0
0
0
0
0
0
0
0
0
0
0
0
0
0
0
0
0
0
0
0
0
0
0
0
0
0
0
0
0
0
0
0
0
0
0
0
0
0
0
0
0
0
0
0
0
0
0
0
0
0
0
0
0
0
0
0
0
0
0
0
0
0
0
0
0
0
0
0
0
0
0
0
0
0
0
0
0
0
0
0
0
0
0
0
0
0
0
0
0
0
0
0
0
0
0
0
0
0
0
0
0
0
0
0
0
0
0
0
0
0
0
0
0
0
0
0
0
0
0
0
0
0
0
0
0
0
0
0
0
0
0
0
0
0
0
0
0
0
0
0
0
0
0
0
0
0
0
0
0
0
0
0
0
0
0
0
0
0
0
0
0
8.5098992e+14
7.8933097e+14
7.4107704e+14
7.0318821e+14
8.6033995e+14
7.9800273e+14
7.4920481e+14
7.1087932e+14
8.6888994e+14
8.0593231e+14
7.5663633e+14
7.1791068e+14
8.766822e+14
8.1315897e+14
7.6340853e+14
7.2431745e+14
6.7336515e+14
6.498744e+14
6.3141982e+14
6.1704813e+14
6.8070619e+14
6.5693605e+14
6.3826061e+14
6.2371744e+14
6.8741651e+14
6.6338998e+14
6.4451176e+14
6.2981109e+14
6.9352987e+14
6.6926888e+14
6.5020512e+14
6.3536029e+14
6.0608047e+14
5.9806376e+14
5.927381e+14
5.9001711e+14
6.1262094e+14
6.0451339e+14
5.99132e+14
5.9638923e+14
6.1859624e+14
6.1040524e+14
6.0497269e+14
6.0220996e+14
6.2403711e+14
6.1576973e+14
6.1029039e+14
6.0750941e+14
5.8997985e+14
5.9287311e+14
5.9912429e+14
6.0936527e+14
5.9636454e+14
5.9930686e+14
6.0564752e+14
6.1602447e+14
6.0219688e+14
6.0518429e+14
6.116071e+14
6.2210877e+14
6.07507e+14
6.1053569e+14
6.1703365e+14
6.2764933e+14
6.2446882e+14
6.4559973e+14
6.7428395e+14
7.1250035e+14
6.3131903e+14
6.5270762e+14
6.8173163e+14
7.203902e+14
6.3757843e+14
6.5920305e+14
6.885381e+14
7.2760117e+14
6.432789e+14
6.6511897e+14
6.9473775e+14
7.3416962e+14
0
0
0
0
0
0
0
0
0
0
0
0
0
0
0
0
0
0
0
0
0
0
0
0
0
0
0
0
0
0
0
0
0
0
0
0
0
0
0
0
0
0
0
0
0
0
0
0
0
0
0
0
0
0
0
0
0
0
0
0
0
0
0
0
0
0
0
0
0
0
0
0
0
0
0
0
0
0
0
0
0
0
0
0
0
0
0
0
0
0
0
0
0
0
0
0
0
0
0
0
0
0
0
0
0
0
0
0
0
0
0
0
0
0
0
0
0
0
0
0
0
0
0
0
0
0
0
0
0
0
0
0
0
0
0
0
0
0
0
0
0
0
0
0
0
0
0
0
0
0
0
0
0
0
0
0
0
0
0
0
0
0
0
0
0
0
0
0
0
0
0
0
0
0
0
0
0
0
0
0
0
0
0
0
0
0
0
0
0
0
0
0
0
0
0
0
0
0
0
0
0
0
0
0
0
0
0
0
0
0
0
0
0
0
0
0
0
0
0
0
0
0
0
0
0
0
0
0
0
0
0
0
0
0
0
0
0
0
0
0
8.8375595e+14
8.1971912e+14
7.6955565e+14
7.3013218e+14
8.9014732e+14
8.2564631e+14
7.7510923e+14
7.3538487e+14
8.9588936e+14
8.3097122e+14
7.8009812e+14
7.4010295e+14
9.0101217e+14
8.3572177e+14
7.8454859e+14
7.443114e+14
6.9907752e+14
6.7460299e+14
6.5537018e+14
6.4039395e+14
7.0408828e+14
6.7942019e+14
6.6003408e+14
6.4493868e+14
7.0858848e+14
6.8374599e+14
6.6422168e+14
6.4901879e+14
7.126021e+14
6.8760355e+14
6.6795554e+14
6.5265642e+14
6.2897201e+14
6.2063501e+14
6.1511301e+14
6.1231544e+14
6.3342714e+14
6.2502697e+14
6.1946629e+14
6.1665368e+14
6.3742644e+14
6.289693e+14
6.2337373e+14
6.2054756e+14
6.409917e+14
6.3248354e+14
6.2685673e+14
6.2401841e+14
6.1232277e+14
6.1538909e+14
6.219555e+14
6.3267495e+14
6.1666985e+14
6.197703e+14
6.2639875e+14
6.3721218e+14
6.2057172e+14
6.2370294e+14
6.3038727e+14
6.4128533e+14
6.2404972e+14
6.2720847e+14
6.3394279e+14
6.449165e+14
6.4844999e+14
6.7048591e+14
7.0036247e+14
7.4012924e+14
6.5311891e+14
6.7533201e+14
7.0544167e+14
7.4551111e+14
6.5731055e+14
6.7968303e+14
7.1000224e+14
7.5034365e+14
6.6104762e+14
6.8356243e+14
7.140687e+14
7.546528e+14
0
0
0
0
0
0
0
0
0
0
0
0
0
0
0
0
0
0
0
0
0
0
0
0
0
0
0
0
0
0
0
0
0
0
0
0
0
0
0
0
0
0
0
0
0
0
0
0
0
0
0
0
0
0
0
0
0
0
0
0
0
0
0
0
0
0
0
0
0
0
0
0
0
0
0
0
0
0
0
0
0
0
0
0
0
0
0
0
0
0
0
0
0
0
0
0
0
0
0
0
0
0
0
0
0
0
0
0
0
0
0
0
0
0
0
0
0
0
0
0
0
0
0
0
0
0
0
0
0
0
0
0
0
0
0
0
0
0
0
0
0
0
0
0
0
0
0
0
0
0
0
0
0
0
0
0
0
0
0
0
0
0
0
0
0
0
0
0
0
0
0
0
0
0
0
0
0
0
0
0
0
0
0
0
0
0
0
0
0
0
0
0
0
0
0
0
0
0
0
0
0
0
0
0
0
0
0
0
0
0
0
0
0
0
0
0
0
0
0
0
0
0
0
0
0
0
0
0
0
0
0
0
0
0
0
0
0
0
0
0
9.0554285e+14
8.3992315e+14
7.8848431e+14
7.4803272e+14
9.0950563e+14
8.4359786e+14
7.9192644e+14
7.5128702e+14
9.1292194e+14
8.4676577e+14
7.9489366e+14
7.5409205e+14
9.1581041e+14
8.4944419e+14
7.9740225e+14
7.5646328e+14
7.161507e+14
6.9101375e+14
6.7125599e+14
6.5587146e+14
7.192536e+14
6.9399527e+14
6.7414122e+14
6.5868172e+14
7.2192783e+14
6.9656457e+14
6.7662724e+14
6.6110291e+14
7.2418822e+14
6.98736e+14
6.7872803e+14
6.6314868e+14
6.441425e+14
6.3558905e+14
6.299345e+14
6.2708541e+14
6.4689638e+14
6.3830316e+14
6.3262428e+14
6.2976573e+14
6.4926877e+14
6.4064115e+14
6.349412e+14
6.3207447e+14
6.5127314e+14
6.4261632e+14
6.3689849e+14
6.3402481e+14
6.2712307e+14
6.3030623e+14
6.3708487e+14
6.4812562e+14
6.2980894e+14
6.3301351e+14
6.39831e+14
6.509305e+14
6.321225e+14
6.3534557e+14
6.4219662e+14
6.5334686e+14
6.3407692e+14
6.3731569e+14
6.4419519e+14
6.5538841e+14
6.6435052e+14
6.8699134e+14
7.1766314e+14
7.5846189e+14
6.6723755e+14
6.8998869e+14
7.2080534e+14
7.6179185e+14
6.6972482e+14
6.9257115e+14
7.2351274e+14
7.6466113e+14
6.7182642e+14
6.9475331e+14
7.2580058e+14
7.6708584e+14
0
0
0
0
0
0
0
0
0
0
0
0
0
0
0
0
0
0
0
0
0
0
0
0
0
0
0
0
0
0
0
0
0
0
0
0
0
0
0
0
0
0
0
0
0
0
0
0
0
0
0
0
0
0
0
0
0
0
0
0
0
0
0
0
0
0
0
0
0
0
0
0
0
0
0
0
0
0
0
0
0
0
0
0
0
0
0
0
0
0
0
0
0
0
0
0
0
0
0
0
0
0
0
0
0
0
0
0
0
0
0
0
0
0
0
0
0
0
0
0
0
0
0
0
0
0
0
0
0
0
0
0
0
0
0
0
0
0
0
0
0
0
0
0
0
0
0
0
0
0
0
0
0
0
0
0
0
0
0
0
0
0
0
0
0
0
0
0
0
0
0
0
0
0
0
0
0
0
0
0
0
0
0
0
0
0
0
0
0
0
0
0
0
0
0
0
0
0
0
0
0
0
0
0
0
0
0
0
0
0
0
0
0
0
0
0
0
0
0
0
0
0
0
0
0
0
0
0
0
0
0
0
0
0
0
0
0
0
0
0
9.1818697e+14
8.5164792e+14
7.9946611e+14
7.5841393e+14
9.200649e+14
8.5338929e+14
8.0109683e+14
7.59955e+14
9.2145486e+14
8.5467819e+14
8.0230371e+14
7.6109531e+14
9.2236493e+14
8.5552214e+14
8.0309381e+14
7.6184159e+14
7.2604743e+14
7.0052179e+14
6.8045549e+14
6.6483069e+14
7.2751603e+14
7.0193214e+14
6.8181955e+14
6.6615867e+14
7.2860247e+14
7.0297525e+14
6.8282818e+14
6.6714041e+14
7.293132e+14
7.0365731e+14
6.834874e+14
6.6778181e+14
6.5292095e+14
6.4424001e+14
6.3850741e+14
6.35628e+14
6.5422176e+14
6.4552167e+14
6.3977735e+14
6.3689339e+14
6.5518325e+14
6.4646887e+14
6.4071582e+14
6.3782848e+14
6.5581122e+14
6.4708737e+14
6.4132854e+14
6.3843897e+14
6.3568347e+14
6.389352e+14
6.4583817e+14
6.5706683e+14
6.3695154e+14
6.4021355e+14
6.4713513e+14
6.5839188e+14
6.3788864e+14
6.4115831e+14
6.4809374e+14
6.5937137e+14
6.3850047e+14
6.4177523e+14
6.4871983e+14
6.6001124e+14
6.7355432e+14
6.9654756e+14
7.2768183e+14
7.6907971e+14
6.7491855e+14
6.979643e+14
7.2916736e+14
7.7065423e+14
6.7592713e+14
6.9901182e+14
7.3026585e+14
7.7181859e+14
6.7658617e+14
6.9969646e+14
7.3098392e+14
7.7257979e+14
0
0
0
0
0
0
0
0
0
0
0
0
0
0
0
0
0
0
0
0
0
0
0
0
0
0
0
0
0
0
0
0
0
0
0
0
0
0
0
0
0
0
0
0
0
0
0
0
0
0
0
0
0
0
0
0
0
0
0
0
0
0
0
0
0
0
0
0
0
0
0
0
0
0
0
0
0
0
0
0
0
0
0
0
0
0
0
0
0
0
0
0
0
0
0
0
0
0
0
0
0
0
0
0
0
0
0
0
0
0
0
0
0
0
0
0
0
0
0
0
0
0
0
0
0
0
0
0
0
0
0
0
0
0
0
0
0
0
0
0
0
0
0
0
0
0
0
0
0
0
0
0
0
0
0
0
0
0
0
0
0
0
0
0
0
0
0
0
0
0
0
0
0
0
0
0
0
0
0
0
0
0
0
0
0
0
0
0
0
0
0
0
0
0
0
0
0
0
0
0
0
0
0
0
0
0
0
0
0
0
0
0
0
0
0
0
0
0
0
0
0
0
0
0
0
0
0
0
0
0
0
0
0
0
0
0
0
0
0
0
9.2280066e+14
8.5592628e+14
8.0347198e+14
7.6219843e+14
9.227651e+14
8.5589345e+14
8.0344086e+14
7.6216834e+14
9.2225877e+14
8.5542414e+14
8.0300092e+14
7.6175175e+14
9.2127975e+14
8.5451656e+14
8.0215048e+14
7.6094707e+14
7.296526e+14
7.0398257e+14
6.8380135e+14
6.680869e+14
7.2962308e+14
7.0395336e+14
6.8377229e+14
6.680579e+14
7.2922507e+14
7.0357007e+14
6.8340058e+14
6.6769517e+14
7.2845701e+14
7.028312e+14
6.8268477e+14
6.6699726e+14
6.5610964e+14
6.4738109e+14
6.416194e+14
6.3872874e+14
6.5608067e+14
6.4735216e+14
6.4159051e+14
6.3869991e+14
6.5572469e+14
6.4700094e+14
6.4124224e+14
6.3835284e+14
6.5504024e+14
6.4632601e+14
6.4057318e+14
6.3768611e+14
6.3879093e+14
6.4206822e+14
6.4901736e+14
6.6031554e+14
6.3876215e+14
6.4203946e+14
6.4898853e+14
6.6028651e+14
6.3841448e+14
6.4168927e+14
6.4863368e+14
6.599245e+14
6.3774652e+14
6.4101627e+14
6.4795141e+14
6.592281e+14
6.7689982e+14
7.0002251e+14
7.3132608e+14
7.7294262e+14
6.7687039e+14
6.9999238e+14
7.3129484e+14
7.729097e+14
6.7649824e+14
6.9960646e+14
7.3089062e+14
7.7248152e+14
6.7578193e+14
6.9886322e+14
7.3011182e+14
7.7165637e+14
0
0
0
0
0
0
0
0
0
0
0
0
0
0
0
0
0
0
0
0
0
0
0
0
0
0
0
0
0
0
0
0
0
0
0
0
0
0
0
0
0
0
0
0
0
0
0
0
0
0
0
0
0
0
0
0
0
0
0
0
0
0
0
0
0
0
0
0
0
0
0
0
0
0
0
0
0
0
0
0
0
0
0
0
0
0
0
0
0
0
0
0
0
0
0
0
0
0
0
0
0
0
0
0
0
0
0
0
0
0
0
0
0
0
0
0
0
0
0
0
0
0
0
0
0
0
0
0
0
0
0
0
0
0
0
0
0
0
0
0
0
0
0
0
0
0
0
0
0
0
0
0
0
0
0
0
0
0
0
0
0
0
0
0
0
0
0
0
0
0
0
0
0
0
0
0
0
0
0
0
0
0
0
0
0
0
0
0
0
0
0
0
0
0
0
0
0
0
0
0
0
0
0
0
0
0
0
0
0
0
0
0
0
0
0
0
0
0
0
0
0
0
0
0
0
0
0
0
0
0
0
0
0
0
0
0
0
0
0
0
9.1982361e+14
8.5316661e+14
8.0088567e+14
7.5975062e+14
9.1788345e+14
8.5136788e+14
7.9920048e+14
7.5815667e+14
9.154499e+14
8.4911167e+14
7.9708672e+14
7.5615744e+14
9.1251105e+14
8.4638694e+14
7.9453401e+14
7.5374306e+14
7.2731537e+14
7.0173333e+14
6.8162152e+14
6.6596091e+14
7.2579465e+14
7.0027113e+14
6.8020563e+14
6.6458103e+14
7.2388739e+14
6.9843737e+14
6.7843007e+14
6.6285072e+14
7.2158409e+14
6.9622288e+14
6.7628589e+14
6.6076121e+14
6.5402413e+14
6.4532419e+14
6.3958016e+14
6.3669659e+14
6.5267133e+14
6.4399053e+14
6.3825827e+14
6.3537935e+14
6.5097505e+14
6.4231829e+14
6.3660081e+14
6.3372774e+14
6.4892667e+14
6.4029895e+14
6.3459933e+14
6.3173331e+14
6.367551e+14
6.4001727e+14
6.4693851e+14
6.5819403e+14
6.3543533e+14
6.3868733e+14
6.4558997e+14
6.568172e+14
6.3378052e+14
6.3701973e+14
6.4389899e+14
6.5509069e+14
6.3178222e+14
6.3500598e+14
6.4185698e+14
6.5300575e+14
6.747181e+14
6.9775924e+14
7.2895486e+14
7.7043047e+14
6.7330153e+14
6.9628907e+14
7.2741408e+14
7.6879782e+14
6.7152513e+14
6.9444542e+14
7.2548181e+14
7.6675033e+14
6.6937991e+14
6.9221896e+14
7.2314833e+14
7.6427771e+14
0
0
0
0
0
0
0
0
0
0
0
0
0
0
0
0
0
0
0
0
0
0
0
0
0
0
0
0
0
0
0
0
0
0
0
0
0
0
0
0
0
0
0
0
0
0
0
0
0
0
0
0
0
0
0
0
0
0
0
0
0
0
0
0
0
0
0
0
0
0
0
0
0
0
0
0
0
0
0
0
0
0
0
0
0
0
0
0
0
0
0
0
0
0
0
0
0
0
0
0
0
0
0
0
0
0
0
0
0
0
0
0
0
0
0
0
0
0
0
0
0
0
0
0
0
0
0
0
0
0
0
0
0
0
0
0
0
0
0
0
0
0
0
0
0
0
0
0
0
0
0
0
0
0
0
0
0
0
0
0
0
0
0
0
0
0
0
0
0
0
0
0
0
0
0
0
0
0
0
0
0
0
0
0
0
0
0
0
0
0
0
0
0
0
0
0
0
0
0
0
0
0
0
0
0
0
0
0
0
0
0
0
0
0
0
0
0
0
0
0
0
0
0
0
0
0
0
0
0
0
0
0
0
0
0
0
0
0
0
0
9.0905252e+14
8.4318032e+14
7.9152978e+14
7.5090157e+14
9.0505734e+14
8.3947608e+14
7.8805923e+14
7.476189e+14
9.0050602e+14
8.3525611e+14
7.8410533e+14
7.4387886e+14
8.9537646e+14
8.3049989e+14
7.7964878e+14
7.3966308e+14
7.188733e+14
6.9361656e+14
6.7376228e+14
6.583019e+14
7.1574149e+14
6.9060533e+14
6.7084649e+14
6.5546031e+14
7.1217311e+14
6.8717413e+14
6.6752385e+14
6.5222206e+14
7.0815054e+14
6.8330589e+14
6.6377774e+14
6.4857086e+14
6.4651574e+14
6.3792217e+14
6.3224355e+14
6.2938582e+14
6.4372996e+14
6.3517581e+14
6.2952141e+14
6.2667324e+14
6.4055518e+14
6.3204584e+14
6.2641899e+14
6.2358169e+14
6.3697535e+14
6.2851639e+14
6.2292052e+14
6.2009544e+14
6.2943016e+14
6.3263573e+14
6.3945349e+14
6.5055174e+14
6.267123e+14
6.2989688e+14
6.3667625e+14
6.4771618e+14
6.2361475e+14
6.2677542e+14
6.3351112e+14
6.4448465e+14
6.2012173e+14
6.2325552e+14
6.2994205e+14
6.4084084e+14
6.6685498e+14
6.8959843e+14
7.2040187e+14
7.6136753e+14
6.6393752e+14
6.8657058e+14
7.1722856e+14
7.580051e+14
6.6061275e+14
6.8312011e+14
7.1361245e+14
7.5417357e+14
6.5686396e+14
6.7922973e+14
7.0953545e+14
7.498538e+14
0
0
0
0
0
0
0
0
0
0
0
0
0
0
0
0
0
0
0
0
0
0
0
0
0
0
0
0
0
0
0
0
0
0
0
0
0
0
0
0
0
0
0
0
0
0
0
0
0
0
0
0
0
0
0
0
0
0
0
0
0
0
0
0
0
0
0
0
0
0
0
0
0
0
0
0
0
0
0
0
0
0
0
0
0
0
0
0
0
0
0
0
0
0
0
0
0
0
0
0
0
0
0
0
0
0
0
0
0
0
0
0
0
0
0
0
0
0
0
0
0
0
0
0
0
0
0
0
0
0
0
0
0
0
0
0
0
0
0
0
0
0
0
0
0
0
0
0
0
0
0
0
0
0
0
0
0
0
0
0
0
0
0
0
0
0
0
0
0
0
0
0
0
0
0
0
0
0
0
0
0
0
0
0
0
0
0
0
0
0
0
0
0
0
0
0
0
0
0
0
0
0
0
0
0
0
0
0
0
0
0
0
0
0
0
0
0
0
0
0
0
0
0
0
0
0
0
0
0
0
0
0
0
0
0
0
0
0
0
0
8.8964397e+14
8.251845e+14
7.7466803e+14
7.3495106e+14
8.8328122e+14
8.1928457e+14
7.6913919e+14
7.2972007e+14
8.7625828e+14
8.127723e+14
7.630361e+14
7.2394521e+14
8.6854258e+14
8.0561745e+14
7.5633031e+14
7.1759939e+14
7.0365407e+14
6.7898155e+14
6.5958954e+14
6.4448845e+14
6.9866187e+14
6.7417995e+14
6.5493866e+14
6.3995464e+14
6.9315e+14
6.6887791e+14
6.4980246e+14
6.3494725e+14
6.8709243e+14
6.6305019e+14
6.4415634e+14
6.2944211e+14
6.3297248e+14
6.2456968e+14
6.1900833e+14
6.1619686e+14
6.285267e+14
6.2018603e+14
6.1466288e+14
6.1186648e+14
6.2361611e+14
6.1534378e+14
6.0986264e+14
6.0708282e+14
6.1821693e+14
6.1001939e+14
6.0458422e+14
6.0182254e+14
6.1621561e+14
6.1931942e+14
6.259511e+14
6.3676649e+14
6.1187688e+14
6.1494747e+14
6.2151839e+14
6.3224135e+14
6.0708403e+14
6.1011806e+14
6.1662207e+14
6.272432e+14
6.0181368e+14
6.0480765e+14
6.1123834e+14
6.217478e+14
6.526724e+14
6.7488006e+14
7.049773e+14
7.4502441e+14
6.4801733e+14
6.7004965e+14
6.9991561e+14
7.3966168e+14
6.4287597e+14
6.6471493e+14
6.9432575e+14
7.3373961e+14
6.3722348e+14
6.5885023e+14
6.881809e+14
7.2722983e+14
0
0
0
0
0
0
0
0
0
0
0
0
0
0
0
0
0
0
0
0
0
0
0
0
0
0
0
0
0
0
0
0
0
0
0
0
0
0
0
0
0
0
0
0
0
0
0
0
0
0
0
0
0
0
0
0
0
0
0
0
0
0
0
0
0
0
0
0
0
0
0
0
0
0
0
0
0
0
0
0
0
0
0
0
0
0
0
0
0
0
0
0
0
0
0
0
0
0
0
0
0
0
0
0
0
0
0
0
0
0
0
0
0
0
0
0
0
0
0
0
0
0
0
0
0
0
0
0
0
0
0
0
0
0
0
0
0
0
0
0
0
0
0
0
0
0
0
0
0
0
0
0
0
0
0
0
0
0
0
0
0
0
0
0
0
0
0
0
0
0
0
0
0
0
0
0
0
0
0
0
0
0
0
0
0
0
0
0
0
0
0
0
0
0
0
0
0
0
0
0
0
0
0
0
0
0
0
0
0
0
0
0
0
0
0
0
0
0
0
0
0
0
0
0
0
0
0
0
0
0
0
0
0
0
0
0
0
0
0
0
8.60099e+14
7.9778737e+14
7.4899108e+14
7.1065332e+14
8.5088986e+14
7.8924707e+14
7.4098544e+14
7.0307559e+14
8.4087505e+14
7.7995928e+14
7.3227827e+14
6.9483271e+14
8.3001215e+14
7.6988454e+14
7.2283237e+14
6.8588919e+14
6.8046098e+14
6.5666947e+14
6.3797363e+14
6.2341306e+14
6.7322543e+14
6.4970644e+14
6.312257e+14
6.16832e+14
6.6535352e+14
6.4212978e+14
6.2388194e+14
6.0966883e+14
6.5681106e+14
6.3390626e+14
6.1590987e+14
6.0189164e+14
6.1230334e+14
6.0418728e+14
5.9880221e+14
5.960603e+14
6.0584761e+14
5.9782001e+14
5.9248932e+14
5.8976886e+14
5.9882007e+14
5.9088816e+14
5.8561628e+14
5.8291901e+14
5.9118916e+14
5.8336044e+14
5.7815197e+14
5.7547966e+14
5.9604045e+14
5.9899073e+14
6.0534137e+14
6.1572891e+14
5.8973705e+14
5.9263982e+14
5.989034e+14
6.0915825e+14
5.8287422e+14
5.8572547e+14
5.9189463e+14
6.0200551e+14
5.7542079e+14
5.7821631e+14
5.8428332e+14
5.9423838e+14
6.3103293e+14
6.5242772e+14
6.81452e+14
7.2010164e+14
6.2427538e+14
6.4541744e+14
6.7410776e+14
7.1232196e+14
6.1691974e+14
6.3778728e+14
6.6611463e+14
7.0385533e+14
6.089329e+14
6.29503e+14
6.5743684e+14
6.9466394e+14
0
0
0
0
0
0
0
0
0
0
0
0
0
0
0
0
0
0
0
0
0
0
0
0
0
0
0
0
0
0
0
0
0
0
0
0
0
0
0
0
0
0
0
0
0
0
0
0
0
0
0
0
0
0
0
0
0
0
0
0
0
0
0
0
0
0
0
0
0
0
0
0
0
0
0
0
0
0
0
0
0
0
0
0
0
0
0
0
0
0
0
0
0
0
0
0
0
0
0
0
0
0
0
0
0
0
0
0
0
0
0
0
0
0
0
0
0
0
0
0
0
0
0
0
0
0
0
0
0
0
0
0
0
0
0
0
0
0
0
0
0
0
0
0
0
0
0
0
0
0
0
0
0
0
0
0
0
0
0
0
0
0
0
0
0
0
0
0
0
0
0
0
0
0
0
0
0
0
0
0
0
0
0
0
0
0
0
0
0
0
0
0
0
0
0
0
0
0
0
0
0
0
0
0
0
0
0
0
0
0
0
0
0
0
0
0
0
0
0
0
0
0
0
0
0
0
0
0
0
0
0
0
0
0
0
0
0
0
0
0
8.1825665e+14
7.5898147e+14
7.1260868e+14
6.7620772e+14
8.0556218e+14
7.472069e+14
7.0156644e+14
6.6574932e+14
7.9188097e+14
7.3451631e+14
6.8966355e+14
6.5447367e+14
7.7716422e+14
7.208642e+14
6.768569e+14
6.4233942e+14
6.4756205e+14
6.2500089e+14
6.072752e+14
5.9346667e+14
6.3756884e+14
6.1537698e+14
5.9794201e+14
5.8435849e+14
6.2679241e+14
6.0499649e+14
5.8787288e+14
5.7453021e+14
6.1519267e+14
5.9382018e+14
5.7702924e+14
5.6394362e+14
5.8292153e+14
5.7520374e+14
5.7006341e+14
5.6741786e+14
5.739821e+14
5.6638323e+14
5.6131587e+14
5.5869886e+14
5.6433428e+14
5.5686248e+14
5.5187298e+14
5.4928625e+14
5.5394012e+14
5.4660365e+14
5.4169687e+14
5.39142e+14
5.6734369e+14
5.7007903e+14
5.7603578e+14
5.8582255e+14
5.5860807e+14
5.6127851e+14
5.6711639e+14
5.7672177e+14
5.491773e+14
5.5177777e+14
5.5748771e+14
5.6689782e+14
5.3901312e+14
5.4153815e+14
5.4711047e+14
5.5631064e+14
6.0027967e+14
6.205282e+14
6.4803638e+14
6.8470761e+14
5.9092285e+14
6.108244e+14
6.3787301e+14
6.7394378e+14
5.8082323e+14
6.0035099e+14
6.2690427e+14
6.6232751e+14
5.6993962e+14
5.8906528e+14
6.1508549e+14
6.4981151e+14
0
0
0
0
0
0
0
0
0
0
0
0
0
0
0
0
0
0
0
0
0
0
0
0
0
0
0
0
0
0
0
0
0
0
0
0
0
0
0
0
0
0
0
0
0
0
0
0
0
0
0
0
0
0
0
0
0
0
0
0
0
0
0
0
0
0
0
0
0
0
0
0
0
0
0
0
0
0
0
0
0
0
0
0
0
0
0
0
0
0
0
0
0
0
0
0
0
0
0
0
0
0
0
0
0
0
0
0
0
0
0
0
0
0
0
0
0
0
0
0
0
0
0
0
0
0
0
0
0
0
0
0
0
0
0
0
0
0
0
0
0
0
0
0
0
0
0
0
0
0
0
0
0
0
0
0
0
0
0
0
0
0
0
0
0
0
0
0
0
0
0
0
0
0
0
0
0
0
0
0
0
0
0
0
0
0
0
0
0
0
0
0
0
0
0
0
0
0
0
0
0
0
0
0
0
0
0
0
0
0
0
0
0
0
0
0
0
0
0
0
0
0
0
0
0
0
0
0
0
0
0
0
0
0
0
0
0
0
0
0
7.6136293e+14
7.0620477e+14
6.63103e+14
6.2930471e+14
7.4442869e+14
6.9049269e+14
6.4835868e+14
6.1532785e+14
7.2631488e+14
6.7368413e+14
6.3258201e+14
6.003681e+14
7.0697829e+14
6.5573825e+14
6.157336e+14
5.8438692e+14
6.0272891e+14
5.8180815e+14
5.6537166e+14
5.5255958e+14
5.893604e+14
5.6892023e+14
5.5286029e+14
5.4033837e+14
5.7504713e+14
5.5511679e+14
5.3945557e+14
5.2724029e+14
5.5975086e+14
5.4035954e+14
5.2511893e+14
5.1322628e+14
5.4276059e+14
5.355677e+14
5.3074839e+14
5.2822674e+14
5.3075594e+14
5.237147e+14
5.1898732e+14
5.1649982e+14
5.1788616e+14
5.1100422e+14
5.063727e+14
5.0391966e+14
5.0411155e+14
4.9739582e+14
4.928632e+14
4.9044397e+14
5.2807576e+14
5.3051936e+14
5.3594367e+14
5.4491829e+14
5.1632407e+14
5.1867958e+14
5.2394463e+14
5.3267698e+14
5.0371568e+14
5.0597555e+14
5.11069e+14
5.1954102e+14
4.9020724e+14
4.9236265e+14
4.9727077e+14
5.0546276e+14
5.5822881e+14
5.7692244e+14
6.0236964e+14
6.3634592e+14
5.4564563e+14
5.6387545e+14
5.8870739e+14
6.2187837e+14
5.3214274e+14
5.4987491e+14
5.740467e+14
6.0635347e+14
5.1767048e+14
5.3486877e+14
5.5833254e+14
5.8971248e+14
0
0
0
0
0
0
0
0
0
0
0
0
0
0
0
0
0
0
0
0
0
0
0
0
0
0
0
0
0
0
0
0
0
0
0
0
0
0
0
0
0
0
0
0
0
0
0
0
0
0
0
0
0
0
0
0
0
0
0
0
0
0
0
0
0
0
0
0
0
0
0
0
0
0
0
0
0
0
0
0
0
0
0
0
0
0
0
0
0
0
0
0
0
0
0
0
0
0
0
0
0
0
0
0
0
0
0
0
0
0
0
0
0
0
0
0
0
0
0
0
0
0
0
0
0
0
0
0
0
0
0
0
0
0
0
0
0
0
0
0
0
0
0
0
0
0
0
0
0
0
0
0
0
0
0
0
0
0
0
0
0
0
0
0
0
0
0
0
0
0
0
0
0
0
0
0
0
0
0
0
0
0
0
0
0
0
0
0
0
0
0
0
0
0
0
0
0
0
0
0
0
0
0
0
0
0
0
0
0
0
0
0
0
0
0
0
0
0
0
0
0
0
0
0
0
0
0
0
0
0
0
0
0
0
0
0
0
0
0
0
6.8638105e+14
6.3661894e+14
5.9777825e+14
5.6734936e+14
6.6449347e+14
6.1629734e+14
5.7868718e+14
5.4922614e+14
6.4129737e+14
5.9475496e+14
5.584409e+14
5.2999625e+14
6.1679079e+14
5.719879e+14
5.3703304e+14
5.0965047e+14
5.4343646e+14
5.2461281e+14
5.0981389e+14
4.9825888e+14
5.2607373e+14
5.0784514e+14
4.9350749e+14
4.8230342e+14
5.0763972e+14
4.9003139e+14
4.7617214e+14
4.653297e+14
4.8812203e+14
4.7115566e+14
4.5778824e+14
4.4731415e+14
4.8939353e+14
4.8284964e+14
4.7841763e+14
4.7603007e+14
4.736956e+14
4.6732723e+14
4.6299549e+14
4.6063531e+14
4.5698473e+14
4.5079265e+14
4.4655775e+14
4.4421749e+14
4.3923325e+14
4.332139e+14
4.2906791e+14
4.2673543e+14
4.7575449e+14
4.7779494e+14
4.8250208e+14
4.903922e+14
4.603125e+14
4.6222506e+14
4.6671298e+14
4.7427657e+14
4.4383574e+14
4.4560403e+14
4.4985084e+14
4.5705931e+14
4.262782e+14
4.2788076e+14
4.3185929e+14
4.3867853e+14
5.0217643e+14
5.188017e+14
5.4150613e+14
5.7189237e+14
4.8560464e+14
5.0161416e+14
5.2350373e+14
5.5282447e+14
4.6789433e+14
4.832407e+14
5.0425464e+14
5.3243199e+14
4.4897773e+14
4.6360724e+14
4.8367786e+14
5.1062621e+14
0
0
0
0
0
0
0
0
0
0
0
0
0
0
0
0
0
0
0
0
0
0
0
0
0
0
0
0
0
0
0
0
0
0
0
0
0
0
0
0
0
0
0
0
0
0
0
0
0
0
0
0
0
0
0
0
0
0
0
0
0
0
0
0
0
0
0
0
0
0
0
0
0
0
0
0
0
0
0
0
0
0
0
0
0
0
0
0
0
0
0
0
0
0
0
0
0
0
0
0
0
0
0
0
0
0
0
0
0
0
0
0
0
0
0
0
0
0
0
0
0
0
0
0
0
0
0
0
0
0
0
0
0
0
0
0
0
0
0
0
0
0
0
0
0
0
0
0
0
0
0
0
0
0
0
0
0
0
0
0
0
0
0
0
0
0
0
0
0
0
0
0
0
0
0
0
0
0
0
0
0
0
0
0
0
0