/*--------------------------------*- C++ -*----------------------------------*\
| =========                 |                                                 |
| \\      /  F ield         | OpenFOAM: The Open Source CFD Toolbox           |
|  \\    /   O peration     | Version:  1.4.1-dev                             |
|   \\  /    A nd           | Web:      http://www.openfoam.org               |
|    \\/     M anipulation  |                                                 |
\*---------------------------------------------------------------------------*/

FoamFile
{
    version 2.0;
    format ascii;

    root "/home/cliffoi/OpenFOAM/cliffoi-1.4.1-dev/run/diffusionFoam";
    case "oecd_simplified_2G";
    instance "0";
    local "";

    class volScalarField;
    object dn_lamC2;
}

// * * * * * * * * * * * * * * * * * * * * * * * * * * * * * * * * * * * * * //

dimensions      [0 -3 -1 0 0 0 0];

internalField   nonuniform List<scalar> 
9280
(
0
0
0
0
0
0
0
0
0
0
0
0
0
0
0
0
0
0
0
0
0
0
0
0
0
0
0
0
0
0
0
0
0
0
0
0
0
0
0
0
0
0
0
0
0
0
0
0
0
0
0
0
0
0
0
0
0
0
0
0
0
0
0
0
0
0
0
0
0
0
0
0
0
0
0
0
0
0
0
0
0
0
0
0
0
0
0
0
0
0
0
0
0
0
0
0
0
0
0
0
0
0
0
0
0
0
0
0
0
0
0
0
0
0
0
0
0
0
0
0
0
0
0
0
0
0
0
0
0
0
0
0
0
0
0
0
0
0
0
0
0
0
0
0
0
0
0
0
0
0
0
0
0
0
0
0
0
0
0
0
0
0
0
0
0
0
0
0
0
0
0
0
0
0
0
0
0
0
0
0
0
0
0
0
0
0
0
0
0
0
0
0
0
0
0
0
0
0
0
0
0
0
0
0
0
0
0
0
0
0
0
0
0
0
0
0
0
0
0
0
0
0
0
0
0
0
0
0
0
0
0
0
0
0
0
0
0
0
0
0
0
0
0
0
0
0
0
0
0
0
0
0
0
0
0
0
0
0
0
0
0
0
0
0
0
0
0
0
0
0
0
0
0
0
0
0
0
0
0
0
0
0
0
0
0
0
0
0
0
0
0
0
0
0
0
0
0
0
0
0
0
0
0
0
0
0
0
0
0
0
0
0
0
0
0
0
0
0
0
0
0
0
0
0
0
0
0
0
0
0
0
0
0
0
0
0
0
0
0
0
0
0
0
0
0
0
0
0
0
0
0
0
0
0
0
0
0
0
0
0
0
0
0
0
0
0
0
0
0
0
0
0
0
0
0
0
0
0
0
0
0
0
0
0
0
0
0
0
0
0
0
0
0
0
0
0
0
0
0
0
0
0
0
0
0
0
0
0
0
0
0
0
0
0
0
0
0
0
0
0
0
0
0
0
0
0
0
0
0
0
0
0
0
0
0
0
0
0
0
0
0
0
0
0
0
0
0
0
0
0
0
0
0
0
0
0
0
0
0
0
0
0
0
0
0
0
0
0
0
0
0
0
0
0
0
0
0
0
0
0
0
0
0
0
0
0
0
0
0
0
0
0
0
0
0
0
0
0
0
0
0
0
0
0
0
0
0
0
0
0
0
0
0
0
0
0
0
0
0
0
0
0
0
0
0
0
0
0
0
0
0
0
0
0
0
0
0
0
0
0
0
0
0
0
0
0
0
0
0
0
0
0
0
0
0
0
0
0
0
0
0
0
0
0
0
0
0
0
0
0
0
0
0
0
0
0
0
0
0
0
0
0
0
0
0
0
0
0
0
0
0
0
0
0
0
0
0
0
0
0
0
0
0
0
0
0
0
0
0
0
0
0
0
0
0
0
0
0
0
0
0
0
0
0
0
0
0
0
0
0
0
0
0
0
0
0
0
0
0
0
0
0
0
0
0
0
0
0
0
0
0
0
0
0
0
0
0
0
0
0
0
0
0
0
0
0
0
0
0
0
0
0
0
0
0
0
0
0
0
0
0
0
0
0
0
0
0
0
0
0
0
0
0
0
0
0
0
0
0
0
0
0
0
0
0
0
0
0
0
0
0
0
0
0
0
0
0
0
0
0
0
0
0
0
0
0
0
0
0
0
0
0
0
0
0
0
0
0
0
0
0
0
0
0
0
0
0
0
0
0
0
0
0
0
0
0
0
0
0
0
0
0
0
0
0
0
0
0
0
0
0
0
0
0
0
0
0
0
0
0
0
0
0
0
0
0
0
0
0
0
0
0
0
0
0
0
0
0
0
0
0
0
0
0
0
0
0
0
0
0
0
0
0
0
0
0
0
0
0
0
0
0
0
0
0
0
0
0
0
0
0
0
0
0
0
0
0
0
0
0
0
0
0
0
0
0
0
0
0
0
0
0
0
0
0
0
0
0
0
0
0
0
0
0
0
0
0
0
0
0
0
0
0
0
0
0
0
0
0
0
0
0
0
0
0
0
0
0
0
0
0
0
0
0
0
0
0
0
0
0
0
0
0
0
0
0
0
0
0
0
0
0
0
0
0
0
0
0
0
0
0
0
0
0
0
0
0
0
0
0
0
0
0
0
0
0
0
0
0
0
0
0
0
0
0
0
0
0
0
0
0
0
0
0
0
0
0
0
0
0
0
0
0
0
0
0
0
0
0
0
0
0
0
0
0
0
0
0
0
0
0
0
0
0
0
0
0
0
0
0
0
0
0
0
0
0
0
0
0
0
0
0
0
0
0
0
0
0
0
0
0
0
0
0
0
0
0
0
0
0
0
0
0
0
0
0
0
0
0
0
0
0
0
0
0
0
0
0
0
0
0
0
0
0
0
0
0
0
0
0
0
0
0
0
0
0
3.1314375e+14
2.9933896e+14
2.8895068e+14
2.8096599e+14
3.1993578e+14
3.0102549e+14
2.8660922e+14
2.7550917e+14
3.3566868e+14
3.1343677e+14
2.9632655e+14
2.8307502e+14
3.5466194e+14
3.3000278e+14
3.1092781e+14
2.9609844e+14
2.746669e+14
2.6954147e+14
2.6522547e+14
2.6146323e+14
2.6685293e+14
2.5999808e+14
2.5447622e+14
2.4995217e+14
2.7273362e+14
2.6459415e+14
2.5813345e+14
2.5297249e+14
2.8450619e+14
2.7539504e+14
2.6820385e+14
2.625239e+14
2.5808118e+14
2.5497014e+14
2.5207398e+14
2.4938309e+14
2.4619456e+14
2.4305532e+14
2.4045606e+14
2.3838009e+14
2.4884647e+14
2.4558359e+14
2.4309073e+14
2.4134475e+14
2.5806786e+14
2.5464774e+14
2.5215992e+14
2.5057605e+14
2.4693197e+14
2.4480073e+14
2.4312047e+14
2.420836e+14
2.3686923e+14
2.3602506e+14
2.360146e+14
2.3708063e+14
2.4038882e+14
2.4033312e+14
2.4136001e+14
2.4373363e+14
2.4993898e+14
2.5036334e+14
2.5204061e+14
2.5524883e+14
2.4196039e+14
2.4312475e+14
2.4609393e+14
2.5159077e+14
2.3955732e+14
2.4389197e+14
2.5067375e+14
2.6067016e+14
2.4781447e+14
2.5407956e+14
2.6314911e+14
2.75821e+14
2.6036754e+14
2.6789861e+14
2.7849431e+14
2.9299422e+14
0
0
0
0
0
0
0
0
0
0
0
0
0
0
0
0
0
0
0
0
0
0
0
0
0
0
0
0
0
0
0
0
0
0
0
0
0
0
0
0
0
0
0
0
0
0
0
0
0
0
0
0
0
0
0
0
0
0
0
0
0
0
0
0
0
0
0
0
0
0
0
0
0
0
0
0
0
0
0
0
0
0
0
0
0
0
0
0
0
0
0
0
0
0
0
0
0
0
0
0
0
0
0
0
0
0
0
0
0
0
0
0
0
0
0
0
0
0
0
0
0
0
0
0
0
0
0
0
0
0
0
0
0
0
0
0
0
0
0
0
0
0
0
0
0
0
0
0
0
0
0
0
0
0
0
0
0
0
0
0
0
0
0
0
0
0
0
0
0
0
0
0
0
0
0
0
0
0
0
0
0
0
0
0
0
0
0
0
0
0
0
0
0
0
0
0
0
0
0
0
0
0
0
0
0
0
0
0
0
0
0
0
0
0
0
0
0
0
0
0
0
0
0
0
0
0
0
0
0
0
0
0
0
0
0
0
0
0
0
0
3.7446411e+14
3.4785471e+14
3.2721475e+14
3.111335e+14
3.9399179e+14
3.6571103e+14
3.4373965e+14
3.2659852e+14
4.1277081e+14
3.8300017e+14
3.5984718e+14
3.4176847e+14
4.306043e+14
3.9947566e+14
3.7524788e+14
3.563176e+14
2.9854742e+14
2.8865826e+14
2.8087257e+14
2.7475706e+14
3.131723e+14
3.0262345e+14
2.9432878e+14
2.8783284e+14
3.2759999e+14
3.1646735e+14
3.077196e+14
3.0088062e+14
3.4147522e+14
3.2981186e+14
3.206506e+14
3.13496e+14
2.7000622e+14
2.6641914e+14
2.6388395e+14
2.6236818e+14
2.8281384e+14
2.7905961e+14
2.7645118e+14
2.7495287e+14
2.9561365e+14
2.916962e+14
2.89003e+14
2.8749565e+14
3.0799737e+14
3.0392264e+14
3.0114079e+14
2.996111e+14
2.6191461e+14
2.6264176e+14
2.6474924e+14
2.6852798e+14
2.7460784e+14
2.7553879e+14
2.7795356e+14
2.8215596e+14
2.8721813e+14
2.8829748e+14
2.9094981e+14
2.9549165e+14
2.9937851e+14
3.0057444e+14
3.0342305e+14
3.0825319e+14
2.7437596e+14
2.8282033e+14
2.9454732e+14
3.1044175e+14
2.8856243e+14
2.9772545e+14
3.1036521e+14
3.2741152e+14
3.0235753e+14
3.1212457e+14
3.2554583e+14
3.4359435e+14
3.1551673e+14
3.2581433e+14
3.3993028e+14
3.5887861e+14
0
0
0
0
0
0
0
0
0
0
0
0
0
0
0
0
0
0
0
0
0
0
0
0
0
0
0
0
0
0
0
0
0
0
0
0
0
0
0
0
0
0
0
0
0
0
0
0
0
0
0
0
0
0
0
0
0
0
0
0
0
0
0
0
0
0
0
0
0
0
0
0
0
0
0
0
0
0
0
0
0
0
0
0
0
0
0
0
0
0
0
0
0
0
0
0
0
0
0
0
0
0
0
0
0
0
0
0
0
0
0
0
0
0
0
0
0
0
0
0
0
0
0
0
0
0
0
0
0
0
0
0
0
0
0
0
0
0
0
0
0
0
0
0
0
0
0
0
0
0
0
0
0
0
0
0
0
0
0
0
0
0
0
0
0
0
0
0
0
0
0
0
0
0
0
0
0
0
0
0
0
0
0
0
0
0
0
0
0
0
0
0
0
0
0
0
0
0
0
0
0
0
0
0
0
0
0
0
0
0
0
0
0
0
0
0
0
0
0
0
0
0
0
0
0
0
0
0
0
0
0
0
0
0
0
0
0
0
0
0
4.4742347e+14
4.1504229e+14
3.8982374e+14
3.7010864e+14
4.6321948e+14
4.2967625e+14
4.0353819e+14
3.8309435e+14
4.7801195e+14
4.4338784e+14
4.1639378e+14
3.9527094e+14
4.9183406e+14
4.5620381e+14
4.2841207e+14
4.0665581e+14
3.5464499e+14
3.4249173e+14
3.3294772e+14
3.254995e+14
3.6705337e+14
3.5444432e+14
3.4454347e+14
3.3682061e+14
3.7869152e+14
3.6565684e+14
3.5542227e+14
3.47442e+14
3.8957352e+14
3.761409e+14
3.6559393e+14
3.5737234e+14
3.1978334e+14
3.1555832e+14
3.1268809e+14
3.1112985e+14
3.3089988e+14
3.265321e+14
3.2357597e+14
3.219868e+14
3.4132891e+14
3.3682611e+14
3.3378773e+14
3.3216733e+14
3.5107855e+14
3.4644852e+14
3.4333213e+14
3.4168128e+14
3.1092957e+14
3.122229e+14
3.1524172e+14
3.2032657e+14
3.2181158e+14
3.2318997e+14
3.2636113e+14
3.3167661e+14
3.3201284e+14
3.3346771e+14
3.3677788e+14
3.4230519e+14
3.4154482e+14
3.4306967e+14
3.4650811e+14
3.5223154e+14
3.2794575e+14
3.3872215e+14
3.5346946e+14
3.7324021e+14
3.3962013e+14
3.5083539e+14
3.6616363e+14
3.8669337e+14
3.5054777e+14
3.6216873e+14
3.7803501e+14
3.9926868e+14
3.6075149e+14
3.7274915e+14
3.8911532e+14
4.1100331e+14
0
0
0
0
0
0
0
0
0
0
0
0
0
0
0
0
0
0
0
0
0
0
0
0
0
0
0
0
0
0
0
0
0
0
0
0
0
0
0
0
0
0
0
0
0
0
0
0
0
0
0
0
0
0
0
0
0
0
0
0
0
0
0
0
0
0
0
0
0
0
0
0
0
0
0
0
0
0
0
0
0
0
0
0
0
0
0
0
0
0
0
0
0
0
0
0
0
0
0
0
0
0
0
0
0
0
0
0
0
0
0
0
0
0
0
0
0
0
0
0
0
0
0
0
0
0
0
0
0
0
0
0
0
0
0
0
0
0
0
0
0
0
0
0
0
0
0
0
0
0
0
0
0
0
0
0
0
0
0
0
0
0
0
0
0
0
0
0
0
0
0
0
0
0
0
0
0
0
0
0
0
0
0
0
0
0
0
0
0
0
0
0
0
0
0
0
0
0
0
0
0
0
0
0
0
0
0
0
0
0
0
0
0
0
0
0
0
0
0
0
0
0
0
0
0
0
0
0
0
0
0
0
0
0
0
0
0
0
0
0
5.047254e+14
4.6815877e+14
4.3962376e+14
4.1727658e+14
5.1672832e+14
4.7929087e+14
4.5006376e+14
4.2716572e+14
5.2788598e+14
4.8963955e+14
4.5976869e+14
4.3635765e+14
5.3824127e+14
4.9924426e+14
4.6877539e+14
4.4488724e+14
3.9972466e+14
3.8592001e+14
3.7508067e+14
3.66633e+14
4.091755e+14
3.9502329e+14
3.8391058e+14
3.7525134e+14
4.1795883e+14
4.034823e+14
3.9211428e+14
3.8325736e+14
4.2610801e+14
4.1132927e+14
3.9972319e+14
3.9068183e+14
3.6016971e+14
3.5542015e+14
3.5223022e+14
3.5055029e+14
3.6862933e+14
3.6376775e+14
3.605088e+14
3.5880143e+14
3.7648697e+14
3.7152063e+14
3.6819713e+14
3.6646405e+14
3.8377298e+14
3.7870888e+14
3.7532515e+14
3.7356812e+14
3.5043002e+14
3.5201957e+14
3.555771e+14
3.6148285e+14
3.5869602e+14
3.6034574e+14
3.6401413e+14
3.7008967e+14
3.6637247e+14
3.6807826e+14
3.7184999e+14
3.7808368e+14
3.7348946e+14
3.7524756e+14
3.7911558e+14
3.8549653e+14
3.7026079e+14
3.8260887e+14
3.9944006e+14
4.2193667e+14
3.791078e+14
3.9178202e+14
4.0904585e+14
4.3210844e+14
3.8732543e+14
4.0030308e+14
4.1796915e+14
4.4155768e+14
3.949463e+14
4.08206e+14
4.2624569e+14
4.503224e+14
0
0
0
0
0
0
0
0
0
0
0
0
0
0
0
0
0
0
0
0
0
0
0
0
0
0
0
0
0
0
0
0
0
0
0
0
0
0
0
0
0
0
0
0
0
0
0
0
0
0
0
0
0
0
0
0
0
0
0
0
0
0
0
0
0
0
0
0
0
0
0
0
0
0
0
0
0
0
0
0
0
0
0
0
0
0
0
0
0
0
0
0
0
0
0
0
0
0
0
0
0
0
0
0
0
0
0
0
0
0
0
0
0
0
0
0
0
0
0
0
0
0
0
0
0
0
0
0
0
0
0
0
0
0
0
0
0
0
0
0
0
0
0
0
0
0
0
0
0
0
0
0
0
0
0
0
0
0
0
0
0
0
0
0
0
0
0
0
0
0
0
0
0
0
0
0
0
0
0
0
0
0
0
0
0
0
0
0
0
0
0
0
0
0
0
0
0
0
0
0
0
0
0
0
0
0
0
0
0
0
0
0
0
0
0
0
0
0
0
0
0
0
0
0
0
0
0
0
0
0
0
0
0
0
0
0
0
0
0
0
5.4783616e+14
5.0814373e+14
4.7712015e+14
4.5278894e+14
5.5671122e+14
5.1637553e+14
4.8483821e+14
4.6009624e+14
5.6490539e+14
5.239757e+14
4.9196347e+14
4.6684137e+14
5.7245574e+14
5.3097861e+14
4.9852822e+14
4.7305506e+14
4.3365609e+14
4.1859618e+14
4.0676847e+14
3.9755533e+14
4.4063524e+14
4.2531419e+14
4.1328051e+14
4.0390767e+14
4.470764e+14
4.3151329e+14
4.1928856e+14
4.0976753e+14
4.5300912e+14
4.3722208e+14
4.2482053e+14
4.1516229e+14
3.9051749e+14
3.8536233e+14
3.8192254e+14
3.8014328e+14
3.9674989e+14
3.9151009e+14
3.8801823e+14
3.8621837e+14
4.0249845e+14
3.9718012e+14
3.9364e+14
3.9182111e+14
4.0779016e+14
4.0239913e+14
3.9881435e+14
3.9697792e+14
3.8007674e+14
3.8188362e+14
3.8584129e+14
3.9235919e+14
3.861632e+14
3.8801549e+14
3.9205651e+14
3.9870158e+14
3.9177657e+14
3.9367108e+14
3.9778944e+14
4.0455239e+14
3.9694331e+14
3.9887697e+14
4.0306694e+14
4.0993892e+14
4.0200223e+14
4.1552375e+14
4.3391002e+14
4.5843923e+14
4.0852393e+14
4.2228813e+14
4.4099536e+14
4.6594335e+14
4.1454078e+14
4.2852951e+14
4.4753346e+14
4.7286833e+14
4.2008074e+14
4.3427678e+14
4.5355448e+14
4.7924604e+14
0
0
0
0
0
0
0
0
0
0
0
0
0
0
0
0
0
0
0
0
0
0
0
0
0
0
0
0
0
0
0
0
0
0
0
0
0
0
0
0
0
0
0
0
0
0
0
0
0
0
0
0
0
0
0
0
0
0
0
0
0
0
0
0
0
0
0
0
0
0
0
0
0
0
0
0
0
0
0
0
0
0
0
0
0
0
0
0
0
0
0
0
0
0
0
0
0
0
0
0
0
0
0
0
0
0
0
0
0
0
0
0
0
0
0
0
0
0
0
0
0
0
0
0
0
0
0
0
0
0
0
0
0
0
0
0
0
0
0
0
0
0
0
0
0
0
0
0
0
0
0
0
0
0
0
0
0
0
0
0
0
0
0
0
0
0
0
0
0
0
0
0
0
0
0
0
0
0
0
0
0
0
0
0
0
0
0
0
0
0
0
0
0
0
0
0
0
0
0
0
0
0
0
0
0
0
0
0
0
0
0
0
0
0
0
0
0
0
0
0
0
0
0
0
0
0
0
0
0
0
0
0
0
0
0
0
0
0
0
0
5.7939739e+14
5.3741683e+14
5.0456309e+14
4.7876644e+14
5.8576337e+14
5.4332101e+14
5.1009689e+14
4.8400294e+14
5.9158464e+14
5.4871987e+14
5.1515665e+14
4.8879025e+14
5.9689001e+14
5.5364015e+14
5.1976751e+14
4.9315231e+14
4.5846138e+14
4.4246768e+14
4.2990285e+14
4.2011788e+14
4.6345953e+14
4.4727561e+14
4.3456042e+14
4.2465869e+14
4.6802826e+14
4.5166978e+14
4.3881652e+14
4.2880755e+14
4.7219055e+14
4.5567243e+14
4.4269285e+14
4.3258573e+14
4.1265053e+14
4.0719235e+14
4.0356637e+14
4.0171378e+14
4.1710362e+14
4.1158358e+14
4.0791966e+14
4.0605224e+14
4.2117191e+14
4.1559506e+14
4.118963e+14
4.1001529e+14
4.2487633e+14
4.1924748e+14
4.1551686e+14
4.1362343e+14
4.0168841e+14
4.0365829e+14
4.0791441e+14
4.1488699e+14
4.0603543e+14
4.0803871e+14
4.1235576e+14
4.1942091e+14
4.1000638e+14
4.1204036e+14
4.1641335e+14
4.2356342e+14
4.1362179e+14
4.1568387e+14
4.2010802e+14
4.2733571e+14
4.2517026e+14
4.3955726e+14
4.5908694e+14
4.8510662e+14
4.2983423e+14
4.4439668e+14
4.6415771e+14
4.9047843e+14
4.3409595e+14
4.488191e+14
4.6879189e+14
4.9538803e+14
4.3797713e+14
4.5284696e+14
4.7301294e+14
4.9986017e+14
0
0
0
0
0
0
0
0
0
0
0
0
0
0
0
0
0
0
0
0
0
0
0
0
0
0
0
0
0
0
0
0
0
0
0
0
0
0
0
0
0
0
0
0
0
0
0
0
0
0
0
0
0
0
0
0
0
0
0
0
0
0
0
0
0
0
0
0
0
0
0
0
0
0
0
0
0
0
0
0
0
0
0
0
0
0
0
0
0
0
0
0
0
0
0
0
0
0
0
0
0
0
0
0
0
0
0
0
0
0
0
0
0
0
0
0
0
0
0
0
0
0
0
0
0
0
0
0
0
0
0
0
0
0
0
0
0
0
0
0
0
0
0
0
0
0
0
0
0
0
0
0
0
0
0
0
0
0
0
0
0
0
0
0
0
0
0
0
0
0
0
0
0
0
0
0
0
0
0
0
0
0
0
0
0
0
0
0
0
0
0
0
0
0
0
0
0
0
0
0
0
0
0
0
0
0
0
0
0
0
0
0
0
0
0
0
0
0
0
0
0
0
0
0
0
0
0
0
0
0
0
0
0
0
0
0
0
0
0
0
6.0170618e+14
5.5810664e+14
5.2395278e+14
4.9711127e+14
6.0605775e+14
5.6214217e+14
5.2773394e+14
5.0068757e+14
6.0996722e+14
5.6576764e+14
5.3113064e+14
5.0389988e+14
6.1345509e+14
5.6900206e+14
5.3416074e+14
5.0676521e+14
4.7596767e+14
4.5930416e+14
4.4620948e+14
4.360129e+14
4.7937925e+14
4.6258396e+14
4.4938491e+14
4.3910718e+14
4.8244322e+14
4.6552918e+14
4.5223604e+14
4.4188513e+14
4.851759e+14
4.6815561e+14
4.5477824e+14
4.4436181e+14
4.2823626e+14
4.2256001e+14
4.1880035e+14
4.1689562e+14
4.3126954e+14
4.2555028e+14
4.2176428e+14
4.1984931e+14
4.3399247e+14
4.2823442e+14
4.2442467e+14
4.2250046e+14
4.3641988e+14
4.3062709e+14
4.2679607e+14
4.248636e+14
4.1690061e+14
4.1898832e+14
4.2345907e+14
4.3075741e+14
4.1986032e+14
4.2197127e+14
4.2648425e+14
4.3384659e+14
4.2251692e+14
4.2464881e+14
4.2919984e+14
4.366198e+14
4.2488492e+14
4.2703555e+14
4.3162062e+14
4.3909209e+14
4.4149787e+14
4.5650104e+14
4.7684253e+14
5.0391778e+14
4.446767e+14
4.5980052e+14
4.8030071e+14
5.0758203e+14
4.4753059e+14
4.6276292e+14
4.8340578e+14
5.1087227e+14
4.5007497e+14
4.6540421e+14
4.8617443e+14
5.1380616e+14
0
0
0
0
0
0
0
0
0
0
0
0
0
0
0
0
0
0
0
0
0
0
0
0
0
0
0
0
0
0
0
0
0
0
0
0
0
0
0
0
0
0
0
0
0
0
0
0
0
0
0
0
0
0
0
0
0
0
0
0
0
0
0
0
0
0
0
0
0
0
0
0
0
0
0
0
0
0
0
0
0
0
0
0
0
0
0
0
0
0
0
0
0
0
0
0
0
0
0
0
0
0
0
0
0
0
0
0
0
0
0
0
0
0
0
0
0
0
0
0
0
0
0
0
0
0
0
0
0
0
0
0
0
0
0
0
0
0
0
0
0
0
0
0
0
0
0
0
0
0
0
0
0
0
0
0
0
0
0
0
0
0
0
0
0
0
0
0
0
0
0
0
0
0
0
0
0
0
0
0
0
0
0
0
0
0
0
0
0
0
0
0
0
0
0
0
0
0
0
0
0
0
0
0
0
0
0
0
0
0
0
0
0
0
0
0
0
0
0
0
0
0
0
0
0
0
0
0
0
0
0
0
0
0
0
0
0
0
0
0
6.1653981e+14
5.7186257e+14
5.3684038e+14
5.0929887e+14
6.1923788e+14
5.743645e+14
5.3918396e+14
5.1151456e+14
6.2156387e+14
5.7652137e+14
5.412042e+14
5.1342437e+14
6.2353049e+14
5.7834498e+14
5.4291217e+14
5.1503883e+14
4.8759197e+14
4.7047745e+14
4.5702536e+14
4.4655078e+14
4.8970458e+14
4.7250742e+14
4.5898976e+14
4.4846415e+14
4.9152533e+14
4.7425673e+14
4.6068238e+14
4.5011262e+14
4.9306432e+14
4.7573515e+14
4.621127e+14
4.5150548e+14
4.3856511e+14
4.3274148e+14
4.2889158e+14
4.2695177e+14
4.4044009e+14
4.3458939e+14
4.3072291e+14
4.2877666e+14
4.4205533e+14
4.3618121e+14
4.3230039e+14
4.3034858e+14
4.4342001e+14
4.37526e+14
4.3363302e+14
4.3167647e+14
4.2697741e+14
4.2914467e+14
4.3375991e+14
4.4127702e+14
4.2880609e+14
4.3098793e+14
4.3562962e+14
4.4318672e+14
4.3038127e+14
4.3257571e+14
4.3724025e+14
4.448319e+14
4.3171195e+14
4.3391707e+14
4.3860098e+14
4.462219e+14
4.5232376e+14
4.6773879e+14
4.8862171e+14
5.1639959e+14
4.5428939e+14
4.6977953e+14
4.9076108e+14
5.1866679e+14
4.5598286e+14
4.715378e+14
4.9260442e+14
5.2062034e+14
4.5741373e+14
4.7302353e+14
4.9416209e+14
5.2227121e+14
0
0
0
0
0
0
0
0
0
0
0
0
0
0
0
0
0
0
0
0
0
0
0
0
0
0
0
0
0
0
0
0
0
0
0
0
0
0
0
0
0
0
0
0
0
0
0
0
0
0
0
0
0
0
0
0
0
0
0
0
0
0
0
0
0
0
0
0
0
0
0
0
0
0
0
0
0
0
0
0
0
0
0
0
0
0
0
0
0
0
0
0
0
0
0
0
0
0
0
0
0
0
0
0
0
0
0
0
0
0
0
0
0
0
0
0
0
0
0
0
0
0
0
0
0
0
0
0
0
0
0
0
0
0
0
0
0
0
0
0
0
0
0
0
0
0
0
0
0
0
0
0
0
0
0
0
0
0
0
0
0
0
0
0
0
0
0
0
0
0
0
0
0
0
0
0
0
0
0
0
0
0
0
0
0
0
0
0
0
0
0
0
0
0
0
0
0
0
0
0
0
0
0
0
0
0
0
0
0
0
0
0
0
0
0
0
0
0
0
0
0
0
0
0
0
0
0
0
0
0
0
0
0
0
0
0
0
0
0
0
6.2514857e+14
5.7984539e+14
5.4431735e+14
5.1636693e+14
6.2642717e+14
5.8103101e+14
5.4542763e+14
5.1741617e+14
6.2737352e+14
5.8190855e+14
5.4624933e+14
5.1819255e+14
6.2799314e+14
5.8248316e+14
5.4678728e+14
5.1870066e+14
4.9433016e+14
4.76951e+14
4.6328884e+14
4.5265068e+14
4.9533006e+14
4.7791125e+14
4.6421757e+14
4.5355484e+14
4.9606977e+14
4.7862145e+14
4.6490429e+14
4.5422326e+14
4.9655367e+14
4.7908583e+14
4.6535312e+14
4.5465995e+14
4.4454192e+14
4.3863149e+14
4.3472845e+14
4.32768e+14
4.4542758e+14
4.3950411e+14
4.3559309e+14
4.3362954e+14
4.4608221e+14
4.4014902e+14
4.3623205e+14
4.342662e+14
4.4650977e+14
4.4057013e+14
4.3664922e+14
4.3468185e+14
4.3280577e+14
4.3501971e+14
4.397196e+14
4.4736465e+14
4.3366913e+14
4.3589008e+14
4.4060264e+14
4.4826681e+14
4.3430716e+14
4.3653332e+14
4.4125532e+14
4.489337e+14
4.3472373e+14
4.3695335e+14
4.4168159e+14
4.4936935e+14
4.5859017e+14
4.7424515e+14
4.9544295e+14
5.2362874e+14
4.5951901e+14
4.7520973e+14
4.9645437e+14
5.2470075e+14
4.6020571e+14
4.7592294e+14
4.9720228e+14
5.2549351e+14
4.6065441e+14
4.7638908e+14
4.9769118e+14
5.2601177e+14
0
0
0
0
0
0
0
0
0
0
0
0
0
0
0
0
0
0
0
0
0
0
0
0
0
0
0
0
0
0
0
0
0
0
0
0
0
0
0
0
0
0
0
0
0
0
0
0
0
0
0
0
0
0
0
0
0
0
0
0
0
0
0
0
0
0
0
0
0
0
0
0
0
0
0
0
0
0
0
0
0
0
0
0
0
0
0
0
0
0
0
0
0
0
0
0
0
0
0
0
0
0
0
0
0
0
0
0
0
0
0
0
0
0
0
0
0
0
0
0
0
0
0
0
0
0
0
0
0
0
0
0
0
0
0
0
0
0
0
0
0
0
0
0
0
0
0
0
0
0
0
0
0
0
0
0
0
0
0
0
0
0
0
0
0
0
0
0
0
0
0
0
0
0
0
0
0
0
0
0
0
0
0
0
0
0
0
0
0
0
0
0
0
0
0
0
0
0
0
0
0
0
0
0
0
0
0
0
0
0
0
0
0
0
0
0
0
0
0
0
0
0
0
0
0
0
0
0
0
0
0
0
0
0
0
0
0
0
0
0
6.2828981e+14
5.8275832e+14
5.4704475e+14
5.1894361e+14
6.282656e+14
5.8273597e+14
5.4702356e+14
5.1892312e+14
6.2792087e+14
5.8241644e+14
5.4672403e+14
5.1863949e+14
6.272543e+14
5.8179851e+14
5.46145e+14
5.1809162e+14
4.9678475e+14
4.7930728e+14
4.6556688e+14
4.5486768e+14
4.9676465e+14
4.792874e+14
4.6554709e+14
4.5484793e+14
4.9649366e+14
4.7902643e+14
4.6529401e+14
4.5460097e+14
4.9597073e+14
4.7852337e+14
4.6480665e+14
4.541258e+14
4.4671295e+14
4.407701e+14
4.3684725e+14
4.3487914e+14
4.4669322e+14
4.4075041e+14
4.3682758e+14
4.3485952e+14
4.4645085e+14
4.4051128e+14
4.3659046e+14
4.3462321e+14
4.4598485e+14
4.4005175e+14
4.3613493e+14
4.3416927e+14
4.3492149e+14
4.3715283e+14
4.4188416e+14
4.4957654e+14
4.3490189e+14
4.3713325e+14
4.4186453e+14
4.4955677e+14
4.3466518e+14
4.3689482e+14
4.4162293e+14
4.493103e+14
4.342104e+14
4.3643661e+14
4.4115841e+14
4.4883615e+14
4.6086796e+14
4.7661107e+14
4.9792414e+14
5.262588e+14
4.6084792e+14
4.7659056e+14
4.9790287e+14
5.2623639e+14
4.6059455e+14
4.763278e+14
4.9762766e+14
5.2594487e+14
4.6010684e+14
4.7582177e+14
4.9709741e+14
5.2538306e+14
0
0
0
0
0
0
0
0
0
0
0
0
0
0
0
0
0
0
0
0
0
0
0
0
0
0
0
0
0
0
0
0
0
0
0
0
0
0
0
0
0
0
0
0
0
0
0
0
0
0
0
0
0
0
0
0
0
0
0
0
0
0
0
0
0
0
0
0
0
0
0
0
0
0
0
0
0
0
0
0
0
0
0
0
0
0
0
0
0
0
0
0
0
0
0
0
0
0
0
0
0
0
0
0
0
0
0
0
0
0
0
0
0
0
0
0
0
0
0
0
0
0
0
0
0
0
0
0
0
0
0
0
0
0
0
0
0
0
0
0
0
0
0
0
0
0
0
0
0
0
0
0
0
0
0
0
0
0
0
0
0
0
0
0
0
0
0
0
0
0
0
0
0
0
0
0
0
0
0
0
0
0
0
0
0
0
0
0
0
0
0
0
0
0
0
0
0
0
0
0
0
0
0
0
0
0
0
0
0
0
0
0
0
0
0
0
0
0
0
0
0
0
0
0
0
0
0
0
0
0
0
0
0
0
0
0
0
0
0
0
6.2626288e+14
5.808794e+14
5.4528386e+14
5.1727702e+14
6.2494192e+14
5.7965473e+14
5.441365e+14
5.1619177e+14
6.2328504e+14
5.7811858e+14
5.4269734e+14
5.148306e+14
6.2128412e+14
5.7626345e+14
5.4095932e+14
5.1318676e+14
4.9519344e+14
4.7777588e+14
4.6408273e+14
4.534202e+14
4.9415806e+14
4.7678034e+14
4.6311873e+14
4.524807e+14
4.928595e+14
4.7553183e+14
4.6190983e+14
4.5130262e+14
4.912913e+14
4.7402409e+14
4.6044997e+14
4.4987997e+14
4.4529302e+14
4.3936966e+14
4.3545883e+14
4.3349555e+14
4.4437197e+14
4.3846164e+14
4.3455882e+14
4.3259871e+14
4.4321706e+14
4.3732309e+14
4.3343034e+14
4.3147421e+14
4.4182241e+14
4.3594822e+14
4.3206763e+14
4.301163e+14
4.3353539e+14
4.3575644e+14
4.4046877e+14
4.4813211e+14
4.3263682e+14
4.3485095e+14
4.3955062e+14
4.4719469e+14
4.3151014e+14
4.3371556e+14
4.3839931e+14
4.460192e+14
4.3014959e+14
4.3234449e+14
4.3700901e+14
4.4459966e+14
4.5938254e+14
4.7507012e+14
4.9630969e+14
5.245484e+14
4.5841806e+14
4.7406916e+14
4.9526065e+14
5.2343681e+14
4.572086e+14
4.728139e+14
4.9394506e+14
5.2204278e+14
4.5574803e+14
4.7129802e+14
4.9235631e+14
5.2035929e+14
0
0
0
0
0
0
0
0
0
0
0
0
0
0
0
0
0
0
0
0
0
0
0
0
0
0
0
0
0
0
0
0
0
0
0
0
0
0
0
0
0
0
0
0
0
0
0
0
0
0
0
0
0
0
0
0
0
0
0
0
0
0
0
0
0
0
0
0
0
0
0
0
0
0
0
0
0
0
0
0
0
0
0
0
0
0
0
0
0
0
0
0
0
0
0
0
0
0
0
0
0
0
0
0
0
0
0
0
0
0
0
0
0
0
0
0
0
0
0
0
0
0
0
0
0
0
0
0
0
0
0
0
0
0
0
0
0
0
0
0
0
0
0
0
0
0
0
0
0
0
0
0
0
0
0
0
0
0
0
0
0
0
0
0
0
0
0
0
0
0
0
0
0
0
0
0
0
0
0
0
0
0
0
0
0
0
0
0
0
0
0
0
0
0
0
0
0
0
0
0
0
0
0
0
0
0
0
0
0
0
0
0
0
0
0
0
0
0
0
0
0
0
0
0
0
0
0
0
0
0
0
0
0
0
0
0
0
0
0
0
6.1892937e+14
5.7408022e+14
5.3891389e+14
5.1125213e+14
6.1620925e+14
5.7155818e+14
5.3655096e+14
5.0901712e+14
6.1311048e+14
5.6868501e+14
5.3385895e+14
5.0647071e+14
6.0961802e+14
5.6544673e+14
5.308247e+14
5.036004e+14
4.8944565e+14
4.7224957e+14
4.5873176e+14
4.4820555e+14
4.8731335e+14
4.7019937e+14
4.5674654e+14
4.4627085e+14
4.8488382e+14
4.6786323e+14
4.5448432e+14
4.4406609e+14
4.8214505e+14
4.6522955e+14
4.5193378e+14
4.4158016e+14
4.4018093e+14
4.3432999e+14
4.3046369e+14
4.2851801e+14
4.3828423e+14
4.3246012e+14
4.2861032e+14
4.2667115e+14
4.3612268e+14
4.3032908e+14
4.2649804e+14
4.2456626e+14
4.3368534e+14
4.2792606e+14
4.241161e+14
4.2219264e+14
4.2854819e+14
4.3073071e+14
4.3537259e+14
4.4292884e+14
4.2669774e+14
4.2886596e+14
4.334817e+14
4.4099825e+14
4.2458876e+14
4.2674071e+14
4.3132672e+14
4.3879806e+14
4.2221054e+14
4.2434418e+14
4.2889672e+14
4.3631717e+14
4.5402892e+14
4.6951383e+14
4.9048638e+14
5.1837789e+14
4.5204256e+14
4.6745231e+14
4.8832583e+14
5.1608858e+14
4.497789e+14
4.6510306e+14
4.858638e+14
5.1347988e+14
4.4722652e+14
4.6245429e+14
4.8308796e+14
5.1053876e+14
0
0
0
0
0
0
0
0
0
0
0
0
0
0
0
0
0
0
0
0
0
0
0
0
0
0
0
0
0
0
0
0
0
0
0
0
0
0
0
0
0
0
0
0
0
0
0
0
0
0
0
0
0
0
0
0
0
0
0
0
0
0
0
0
0
0
0
0
0
0
0
0
0
0
0
0
0
0
0
0
0
0
0
0
0
0
0
0
0
0
0
0
0
0
0
0
0
0
0
0
0
0
0
0
0
0
0
0
0
0
0
0
0
0
0
0
0
0
0
0
0
0
0
0
0
0
0
0
0
0
0
0
0
0
0
0
0
0
0
0
0
0
0
0
0
0
0
0
0
0
0
0
0
0
0
0
0
0
0
0
0
0
0
0
0
0
0
0
0
0
0
0
0
0
0
0
0
0
0
0
0
0
0
0
0
0
0
0
0
0
0
0
0
0
0
0
0
0
0
0
0
0
0
0
0
0
0
0
0
0
0
0
0
0
0
0
0
0
0
0
0
0
0
0
0
0
0
0
0
0
0
0
0
0
0
0
0
0
0
0
6.0571504e+14
5.6182775e+14
5.2743355e+14
5.0039221e+14
6.0138296e+14
5.5781077e+14
5.2366923e+14
4.9683068e+14
5.9660138e+14
5.5337688e+14
5.1951394e+14
4.9289887e+14
5.9134814e+14
5.4850549e+14
5.149483e+14
4.8857831e+14
4.7908362e+14
4.6228531e+14
4.4908224e+14
4.3880065e+14
4.7568468e+14
4.5901614e+14
4.4591568e+14
4.357138e+14
4.7193192e+14
4.5540623e+14
4.424187e+14
4.3230451e+14
4.6780761e+14
4.5143842e+14
4.3857453e+14
4.2855633e+14
4.3095999e+14
4.2523893e+14
4.2145248e+14
4.1953829e+14
4.2793307e+14
4.2225432e+14
4.1849387e+14
4.1658994e+14
4.2458969e+14
4.1895747e+14
4.1522563e+14
4.1333298e+14
4.2091365e+14
4.1533235e+14
4.1163181e+14
4.0975152e+14
4.1955106e+14
4.2166428e+14
4.2617947e+14
4.3354314e+14
4.1659702e+14
4.1868764e+14
4.2316146e+14
4.3046219e+14
4.1333381e+14
4.1539953e+14
4.198278e+14
4.270592e+14
4.0974548e+14
4.1178393e+14
4.1616227e+14
4.2331765e+14
4.443727e+14
4.5949281e+14
4.7998455e+14
5.0725066e+14
4.4120329e+14
4.5620401e+14
4.7653829e+14
5.0359944e+14
4.3770279e+14
4.5257187e+14
4.7273243e+14
4.9956739e+14
4.3385428e+14
4.4857888e+14
4.685487e+14
4.9513521e+14
0
0
0
0
0
0
0
0
0
0
0
0
0
0
0
0
0
0
0
0
0
0
0
0
0
0
0
0
0
0
0
0
0
0
0
0
0
0
0
0
0
0
0
0
0
0
0
0
0
0
0
0
0
0
0
0
0
0
0
0
0
0
0
0
0
0
0
0
0
0
0
0
0
0
0
0
0
0
0
0
0
0
0
0
0
0
0
0
0
0
0
0
0
0
0
0
0
0
0
0
0
0
0
0
0
0
0
0
0
0
0
0
0
0
0
0
0
0
0
0
0
0
0
0
0
0
0
0
0
0
0
0
0
0
0
0
0
0
0
0
0
0
0
0
0
0
0
0
0
0
0
0
0
0
0
0
0
0
0
0
0
0
0
0
0
0
0
0
0
0
0
0
0
0
0
0
0
0
0
0
0
0
0
0
0
0
0
0
0
0
0
0
0
0
0
0
0
0
0
0
0
0
0
0
0
0
0
0
0
0
0
0
0
0
0
0
0
0
0
0
0
0
0
0
0
0
0
0
0
0
0
0
0
0
0
0
0
0
0
0
5.8559932e+14
5.4317438e+14
5.0995137e+14
4.8384907e+14
5.7932927e+14
5.3735971e+14
5.0450073e+14
4.7868977e+14
5.7251067e+14
5.310361e+14
4.9857244e+14
4.7307759e+14
5.6511465e+14
5.2417671e+14
4.9214119e+14
4.6698838e+14
4.6329258e+14
4.4709411e+14
4.3436503e+14
4.2445145e+14
4.5836625e+14
4.4235332e+14
4.2977069e+14
4.1997072e+14
4.5300665e+14
4.3719474e+14
4.2477068e+14
4.1509367e+14
4.4719051e+14
4.3159575e+14
4.1934289e+14
4.0979856e+14
4.1688738e+14
4.1136155e+14
4.0769512e+14
4.0582829e+14
4.1249199e+14
4.0702639e+14
4.0339698e+14
4.0154476e+14
4.0770728e+14
4.0230683e+14
3.9871747e+14
3.9688103e+14
4.0251177e+14
3.9718157e+14
3.9363538e+14
3.9181594e+14
4.0581478e+14
4.0782348e+14
4.1214732e+14
4.1921968e+14
4.015231e+14
4.0349945e+14
4.0776402e+14
4.1474604e+14
3.9685053e+14
3.9879181e+14
4.0299209e+14
4.0987609e+14
3.9177585e+14
3.9367919e+14
3.9780992e+14
4.0458783e+14
4.2963944e+14
4.442061e+14
4.6396732e+14
4.9028196e+14
4.2503856e+14
4.3943315e+14
4.5896699e+14
4.8498517e+14
4.2003046e+14
4.3423815e+14
4.5352485e+14
4.7922065e+14
4.1459261e+14
4.2859779e+14
4.4761657e+14
4.7296269e+14
0
0
0
0
0
0
0
0
0
0
0
0
0
0
0
0
0
0
0
0
0
0
0
0
0
0
0
0
0
0
0
0
0
0
0
0
0
0
0
0
0
0
0
0
0
0
0
0
0
0
0
0
0
0
0
0
0
0
0
0
0
0
0
0
0
0
0
0
0
0
0
0
0
0
0
0
0
0
0
0
0
0
0
0
0
0
0
0
0
0
0
0
0
0
0
0
0
0
0
0
0
0
0
0
0
0
0
0
0
0
0
0
0
0
0
0
0
0
0
0
0
0
0
0
0
0
0
0
0
0
0
0
0
0
0
0
0
0
0
0
0
0
0
0
0
0
0
0
0
0
0
0
0
0
0
0
0
0
0
0
0
0
0
0
0
0
0
0
0
0
0
0
0
0
0
0
0
0
0
0
0
0
0
0
0
0
0
0
0
0
0
0
0
0
0
0
0
0
0
0
0
0
0
0
0
0
0
0
0
0
0
0
0
0
0
0
0
0
0
0
0
0
0
0
0
0
0
0
0
0
0
0
0
0
0
0
0
0
0
0
5.5711091e+14
5.1675334e+14
4.8518038e+14
4.6039674e+14
5.4846787e+14
5.0873661e+14
4.7766226e+14
4.5327613e+14
5.39153e+14
5.0009621e+14
4.6955816e+14
4.4559909e+14
5.2913309e+14
4.9080116e+14
4.6083874e+14
4.3733747e+14
4.4089331e+14
4.2553252e+14
4.1346397e+14
4.0406241e+14
4.3408942e+14
4.1898007e+14
4.0710945e+14
3.978611e+14
4.2675228e+14
4.119125e+14
4.0025388e+14
3.911695e+14
4.1885458e+14
4.043031e+14
3.9287097e+14
3.8396161e+14
3.9688274e+14
3.9162808e+14
3.8812828e+14
3.8632705e+14
3.9079632e+14
3.8562262e+14
3.8217251e+14
3.8039072e+14
3.842276e+14
3.7914041e+14
3.757433e+14
3.7398212e+14
3.7715072e+14
3.7215568e+14
3.6881489e+14
3.6707541e+14
3.8627656e+14
3.8813892e+14
3.9219457e+14
3.9885791e+14
3.803289e+14
3.8214707e+14
3.861218e+14
3.9266163e+14
3.7390795e+14
3.7567848e+14
3.795661e+14
3.8597298e+14
3.6698766e+14
3.6870683e+14
3.7250074e+14
3.7876469e+14
4.0870105e+14
4.2248729e+14
4.4121626e+14
4.6618391e+14
4.0233045e+14
4.1588044e+14
4.3429652e+14
4.5885534e+14
3.9545412e+14
4.0874961e+14
4.2682844e+14
4.5094639e+14
3.88044e+14
4.0106573e+14
4.1878161e+14
4.4242486e+14
0
0
0
0
0
0
0
0
0
0
0
0
0
0
0
0
0
0
0
0
0
0
0
0
0
0
0
0
0
0
0
0
0
0
0
0
0
0
0
0
0
0
0
0
0
0
0
0
0
0
0
0
0
0
0
0
0
0
0
0
0
0
0
0
0
0
0
0
0
0
0
0
0
0
0
0
0
0
0
0
0
0
0
0
0
0
0
0
0
0
0
0
0
0
0
0
0
0
0
0
0
0
0
0
0
0
0
0
0
0
0
0
0
0
0
0
0
0
0
0
0
0
0
0
0
0
0
0
0
0
0
0
0
0
0
0
0
0
0
0
0
0
0
0
0
0
0
0
0
0
0
0
0
0
0
0
0
0
0
0
0
0
0
0
0
0
0
0
0
0
0
0
0
0
0
0
0
0
0
0
0
0
0
0
0
0
0
0
0
0
0
0
0
0
0
0
0
0
0
0
0
0
0
0
0
0
0
0
0
0
0
0
0
0
0
0
0
0
0
0
0
0
0
0
0
0
0
0
0
0
0
0
0
0
0
0
0
0
0
0
5.1837476e+14
4.8082027e+14
4.5147439e+14
4.2846278e+14
5.0684506e+14
4.7012268e+14
4.414357e+14
4.1894662e+14
4.9451226e+14
4.5867856e+14
4.3069413e+14
4.0876126e+14
4.8134692e+14
4.4646009e+14
4.1922287e+14
3.9788045e+14
4.1036862e+14
3.961247e+14
3.8493389e+14
3.7621077e+14
4.0126666e+14
3.8734995e+14
3.7641552e+14
3.6788996e+14
3.9152145e+14
3.7795186e+14
3.672889e+14
3.5897211e+14
3.8110697e+14
3.6790437e+14
3.5752778e+14
3.4943066e+14
3.6953913e+14
3.6464184e+14
3.6136061e+14
3.5964374e+14
3.6136575e+14
3.5657171e+14
3.5335307e+14
3.5165945e+14
3.5260334e+14
3.4791777e+14
3.4476439e+14
3.4309424e+14
3.4322489e+14
3.3865247e+14
3.3556644e+14
3.339193e+14
3.5954094e+14
3.6120467e+14
3.6489782e+14
3.7100819e+14
3.5153979e+14
3.5314355e+14
3.5672826e+14
3.6267369e+14
3.4295536e+14
3.4449399e+14
3.4796187e+14
3.5373006e+14
3.3375812e+14
3.3522564e+14
3.3856733e+14
3.4414486e+14
3.8007068e+14
3.9279825e+14
4.1012401e+14
4.332568e+14
3.7150341e+14
3.839152e+14
4.0082205e+14
4.2340655e+14
3.6230995e+14
3.7438292e+14
3.908403e+14
4.128364e+14
3.524565e+14
3.6416597e+14
3.801413e+14
4.0150637e+14
0
0
0
0
0
0
0
0
0
0
0
0
0
0
0
0
0
0
0
0
0
0
0
0
0
0
0
0
0
0
0
0
0
0
0
0
0
0
0
0
0
0
0
0
0
0
0
0
0
0
0
0
0
0
0
0
0
0
0
0
0
0
0
0
0
0
0
0
0
0
0
0
0
0
0
0
0
0
0
0
0
0
0
0
0
0
0
0
0
0
0
0
0
0
0
0
0
0
0
0
0
0
0
0
0
0
0
0
0
0
0
0
0
0
0
0
0
0
0
0
0
0
0
0
0
0
0
0
0
0
0
0
0
0
0
0
0
0
0
0
0
0
0
0
0
0
0
0
0
0
0
0
0
0
0
0
0
0
0
0
0
0
0
0
0
0
0
0
0
0
0
0
0
0
0
0
0
0
0
0
0
0
0
0
0
0
0
0
0
0
0
0
0
0
0
0
0
0
0
0
0
0
0
0
0
0
0
0
0
0
0
0
0
0
0
0
0
0
0
0
0
0
0
0
0
0
0
0
0
0
0
0
0
0
0
0
0
0
0
0
4.6732327e+14
4.3344268e+14
4.0699796e+14
3.8628042e+14
4.5242108e+14
4.196067e+14
3.9399978e+14
3.739412e+14
4.3662799e+14
4.0493955e+14
3.8021508e+14
3.6084851e+14
4.1994267e+14
3.8943857e+14
3.6563951e+14
3.4699606e+14
3.6999929e+14
3.5718319e+14
3.4710733e+14
3.3924009e+14
3.5817786e+14
3.457669e+14
3.360051e+14
3.283768e+14
3.4562704e+14
3.3363839e+14
3.2420231e+14
3.1682022e+14
3.3233841e+14
3.2078683e+14
3.1168561e+14
3.0455432e+14
3.332041e+14
3.2874869e+14
3.2573115e+14
3.2410558e+14
3.2251615e+14
3.1818024e+14
3.1523097e+14
3.1362404e+14
3.1113854e+14
3.0692266e+14
3.0403932e+14
3.0244595e+14
2.9905243e+14
2.9495414e+14
2.9213134e+14
2.9054327e+14
3.2391795e+14
3.2530719e+14
3.2851205e+14
3.3388405e+14
3.1340425e+14
3.1470643e+14
3.1776203e+14
3.229117e+14
3.0218604e+14
3.0338998e+14
3.0628142e+14
3.1118931e+14
2.9023196e+14
2.9132307e+14
2.9403186e+14
2.9867474e+14
3.4190736e+14
3.5322669e+14
3.6868502e+14
3.8937353e+14
3.3062444e+14
3.4152453e+14
3.5642807e+14
3.7639113e+14
3.1856635e+14
3.2901495e+14
3.4332231e+14
3.6250688e+14
3.0568696e+14
3.1564748e+14
3.2931259e+14
3.476604e+14
0
0
0
0
0
0
0
0
0
0
0
0
0
0
0
0
0
0
0
0
0
0
0
0
0
0
0
0
0
0
0
0
0
0
0
0
0
0
0
0
0
0
0
0
0
0
0
0
0
0
0
0
0
0
0
0
0
0
0
0
0
0
0
0
0
0
0
0
0
0
0
0
0
0
0
0
0
0
0
0
0
0
0
0
0
0
0
0
0
0
0
0
0
0
0
0
0
0
0
0
0
0
0
0
0
0
0
0
0
0
0
0
0
0
0
0
0
0
0
0
0
0
0
0
0
0
0
0
0
0
0
0
0
0
0
0
0
0
0
0
0
0
0
0
0
0
0
0
0
0
0
0
0
0
0
0
0
0
0
0
0
0
0
0
0
0
0
0
0
0
0
0