/*--------------------------------*- C++ -*----------------------------------*\
| =========                 |                                                 |
| \\      /  F ield         | OpenFOAM: The Open Source CFD Toolbox           |
|  \\    /   O peration     | Version:  1.4.1-dev                             |
|   \\  /    A nd           | Web:      http://www.openfoam.org               |
|    \\/     M anipulation  |                                                 |
\*---------------------------------------------------------------------------*/

FoamFile
{
    version 2.0;
    format ascii;

    root "/home/cliffoi/OpenFOAM/cliffoi-1.4.1-dev/run/diffusionFoam";
    case "oecd_simplified_2G";
    instance "0";
    local "";

    class volScalarField;
    object dn_lamC3;
}

// * * * * * * * * * * * * * * * * * * * * * * * * * * * * * * * * * * * * * //

dimensions      [0 -3 -1 0 0 0 0];

internalField   nonuniform List<scalar> 
9280
(
0
0
0
0
0
0
0
0
0
0
0
0
0
0
0
0
0
0
0
0
0
0
0
0
0
0
0
0
0
0
0
0
0
0
0
0
0
0
0
0
0
0
0
0
0
0
0
0
0
0
0
0
0
0
0
0
0
0
0
0
0
0
0
0
0
0
0
0
0
0
0
0
0
0
0
0
0
0
0
0
0
0
0
0
0
0
0
0
0
0
0
0
0
0
0
0
0
0
0
0
0
0
0
0
0
0
0
0
0
0
0
0
0
0
0
0
0
0
0
0
0
0
0
0
0
0
0
0
0
0
0
0
0
0
0
0
0
0
0
0
0
0
0
0
0
0
0
0
0
0
0
0
0
0
0
0
0
0
0
0
0
0
0
0
0
0
0
0
0
0
0
0
0
0
0
0
0
0
0
0
0
0
0
0
0
0
0
0
0
0
0
0
0
0
0
0
0
0
0
0
0
0
0
0
0
0
0
0
0
0
0
0
0
0
0
0
0
0
0
0
0
0
0
0
0
0
0
0
0
0
0
0
0
0
0
0
0
0
0
0
0
0
0
0
0
0
0
0
0
0
0
0
0
0
0
0
0
0
0
0
0
0
0
0
0
0
0
0
0
0
0
0
0
0
0
0
0
0
0
0
0
0
0
0
0
0
0
0
0
0
0
0
0
0
0
0
0
0
0
0
0
0
0
0
0
0
0
0
0
0
0
0
0
0
0
0
0
0
0
0
0
0
0
0
0
0
0
0
0
0
0
0
0
0
0
0
0
0
0
0
0
0
0
0
0
0
0
0
0
0
0
0
0
0
0
0
0
0
0
0
0
0
0
0
0
0
0
0
0
0
0
0
0
0
0
0
0
0
0
0
0
0
0
0
0
0
0
0
0
0
0
0
0
0
0
0
0
0
0
0
0
0
0
0
0
0
0
0
0
0
0
0
0
0
0
0
0
0
0
0
0
0
0
0
0
0
0
0
0
0
0
0
0
0
0
0
0
0
0
0
0
0
0
0
0
0
0
0
0
0
0
0
0
0
0
0
0
0
0
0
0
0
0
0
0
0
0
0
0
0
0
0
0
0
0
0
0
0
0
0
0
0
0
0
0
0
0
0
0
0
0
0
0
0
0
0
0
0
0
0
0
0
0
0
0
0
0
0
0
0
0
0
0
0
0
0
0
0
0
0
0
0
0
0
0
0
0
0
0
0
0
0
0
0
0
0
0
0
0
0
0
0
0
0
0
0
0
0
0
0
0
0
0
0
0
0
0
0
0
0
0
0
0
0
0
0
0
0
0
0
0
0
0
0
0
0
0
0
0
0
0
0
0
0
0
0
0
0
0
0
0
0
0
0
0
0
0
0
0
0
0
0
0
0
0
0
0
0
0
0
0
0
0
0
0
0
0
0
0
0
0
0
0
0
0
0
0
0
0
0
0
0
0
0
0
0
0
0
0
0
0
0
0
0
0
0
0
0
0
0
0
0
0
0
0
0
0
0
0
0
0
0
0
0
0
0
0
0
0
0
0
0
0
0
0
0
0
0
0
0
0
0
0
0
0
0
0
0
0
0
0
0
0
0
0
0
0
0
0
0
0
0
0
0
0
0
0
0
0
0
0
0
0
0
0
0
0
0
0
0
0
0
0
0
0
0
0
0
0
0
0
0
0
0
0
0
0
0
0
0
0
0
0
0
0
0
0
0
0
0
0
0
0
0
0
0
0
0
0
0
0
0
0
0
0
0
0
0
0
0
0
0
0
0
0
0
0
0
0
0
0
0
0
0
0
0
0
0
0
0
0
0
0
0
0
0
0
0
0
0
0
0
0
0
0
0
0
0
0
0
0
0
0
0
0
0
0
0
0
0
0
0
0
0
0
0
0
0
0
0
0
0
0
0
0
0
0
0
0
0
0
0
0
0
0
0
0
0
0
0
0
0
0
0
0
0
0
0
0
0
0
0
0
0
0
0
0
0
0
0
0
0
0
0
0
0
0
0
0
0
0
0
0
0
0
0
0
0
0
0
0
0
0
0
0
0
0
0
0
0
0
0
0
0
0
0
0
0
0
0
0
0
0
0
0
0
0
0
0
0
0
0
0
0
0
0
0
0
0
0
0
0
0
0
0
0
0
0
0
0
0
0
0
0
0
0
0
0
0
0
0
0
0
0
0
0
0
0
0
0
0
0
0
0
0
0
0
0
0
0
0
0
0
0
0
0
0
0
0
0
0
0
0
0
0
0
0
0
0
0
0
0
0
0
0
0
0
0
0
0
0
0
0
0
0
0
0
0
0
0
0
0
0
0
0
0
0
0
0
0
0
0
0
0
0
0
0
0
0
0
0
0
0
0
0
0
0
0
0
0
0
0
0
0
0
0
0
0
0
0
0
0
0
0
0
0
9.9569926e+14
9.5180436e+14
9.1877286e+14
8.9338406e+14
1.0172958e+15
9.5716698e+14
9.1132775e+14
8.7603305e+14
1.0673215e+15
9.9663099e+14
9.4222583e+14
9.0009009e+14
1.1277141e+15
1.0493057e+15
9.8865328e+14
9.4150052e+14
8.7335491e+14
8.5705764e+14
8.4333412e+14
8.3137137e+14
8.4850893e+14
8.2671264e+14
8.0915486e+14
7.9476978e+14
8.6720769e+14
8.4132672e+14
8.2078372e+14
8.0437346e+14
9.0464079e+14
8.7567017e+14
8.5280444e+14
8.3474397e+14
8.2061749e+14
8.1072537e+14
8.0151649e+14
7.9296028e+14
7.8282175e+14
7.7283995e+14
7.6457513e+14
7.579742e+14
7.91254e+14
7.8087907e+14
7.7295255e+14
7.6740089e+14
8.2057515e+14
8.0970023e+14
8.0178974e+14
7.9675353e+14
7.8516651e+14
7.7838982e+14
7.7304713e+14
7.6975019e+14
7.5317013e+14
7.5048594e+14
7.5045269e+14
7.5384233e+14
7.6436132e+14
7.6418422e+14
7.674494e+14
7.7499676e+14
7.9472785e+14
7.9607719e+14
8.0141037e+14
8.1161152e+14
7.6935842e+14
7.7306073e+14
7.825018e+14
7.9998004e+14
7.6171743e+14
7.7550024e+14
7.970642e+14
8.2884964e+14
7.8797258e+14
8.078936e+14
8.3673192e+14
8.770246e+14
8.2788741e+14
8.5183386e+14
8.8552489e+14
9.3163004e+14
0
0
0
0
0
0
0
0
0
0
0
0
0
0
0
0
0
0
0
0
0
0
0
0
0
0
0
0
0
0
0
0
0
0
0
0
0
0
0
0
0
0
0
0
0
0
0
0
0
0
0
0
0
0
0
0
0
0
0
0
0
0
0
0
0
0
0
0
0
0
0
0
0
0
0
0
0
0
0
0
0
0
0
0
0
0
0
0
0
0
0
0
0
0
0
0
0
0
0
0
0
0
0
0
0
0
0
0
0
0
0
0
0
0
0
0
0
0
0
0
0
0
0
0
0
0
0
0
0
0
0
0
0
0
0
0
0
0
0
0
0
0
0
0
0
0
0
0
0
0
0
0
0
0
0
0
0
0
0
0
0
0
0
0
0
0
0
0
0
0
0
0
0
0
0
0
0
0
0
0
0
0
0
0
0
0
0
0
0
0
0
0
0
0
0
0
0
0
0
0
0
0
0
0
0
0
0
0
0
0
0
0
0
0
0
0
0
0
0
0
0
0
0
0
0
0
0
0
0
0
0
0
0
0
0
0
0
0
0
0
1.1906788e+15
1.1060693e+15
1.0404406e+15
9.8930729e+14
1.2527708e+15
1.1628468e+15
1.0929847e+15
1.0384812e+15
1.3124822e+15
1.2178209e+15
1.1442016e+15
1.0867169e+15
1.3691871e+15
1.2702078e+15
1.193171e+15
1.1329786e+15
9.4928749e+14
9.1784307e+14
8.9308699e+14
8.736416e+14
9.9579006e+14
9.6224799e+14
9.3587356e+14
9.1521847e+14
1.0416656e+15
1.0062673e+15
9.7845217e+14
9.5670633e+14
1.0857845e+15
1.0486986e+15
1.0195687e+15
9.9681932e+14
8.585354e+14
8.4712962e+14
8.3906848e+14
8.3424883e+14
8.9925963e+14
8.8732236e+14
8.7902837e+14
8.742642e+14
9.3995903e+14
9.2750277e+14
9.1893921e+14
9.1414632e+14
9.7933537e+14
9.6637902e+14
9.575336e+14
9.5266966e+14
8.328066e+14
8.3511871e+14
8.4181985e+14
8.5383506e+14
8.7316711e+14
8.7612724e+14
8.8380545e+14
8.9716778e+14
9.1326389e+14
9.166959e+14
9.2512947e+14
9.3957112e+14
9.519301e+14
9.5573279e+14
9.6479048e+14
9.8014882e+14
8.724298e+14
8.9928026e+14
9.3656844e+14
9.8710775e+14
9.1753835e+14
9.4667389e+14
9.8686439e+14
1.0410663e+15
9.6140247e+14
9.924586e+14
1.035134e+15
1.0925227e+15
1.0032446e+15
1.0359878e+15
1.0808721e+15
1.1411218e+15
0
0
0
0
0
0
0
0
0
0
0
0
0
0
0
0
0
0
0
0
0
0
0
0
0
0
0
0
0
0
0
0
0
0
0
0
0
0
0
0
0
0
0
0
0
0
0
0
0
0
0
0
0
0
0
0
0
0
0
0
0
0
0
0
0
0
0
0
0
0
0
0
0
0
0
0
0
0
0
0
0
0
0
0
0
0
0
0
0
0
0
0
0
0
0
0
0
0
0
0
0
0
0
0
0
0
0
0
0
0
0
0
0
0
0
0
0
0
0
0
0
0
0
0
0
0
0
0
0
0
0
0
0
0
0
0
0
0
0
0
0
0
0
0
0
0
0
0
0
0
0
0
0
0
0
0
0
0
0
0
0
0
0
0
0
0
0
0
0
0
0
0
0
0
0
0
0
0
0
0
0
0
0
0
0
0
0
0
0
0
0
0
0
0
0
0
0
0
0
0
0
0
0
0
0
0
0
0
0
0
0
0
0
0
0
0
0
0
0
0
0
0
0
0
0
0
0
0
0
0
0
0
0
0
0
0
0
0
0
0
1.4226668e+15
1.3197048e+15
1.2395177e+15
1.1768298e+15
1.4728932e+15
1.3662362e+15
1.2831253e+15
1.2181203e+15
1.5199286e+15
1.4098348e+15
1.3240021e+15
1.2568381e+15
1.5638786e+15
1.4505856e+15
1.3622165e+15
1.2930384e+15
1.1276602e+15
1.0890167e+15
1.0586697e+15
1.0349867e+15
1.167115e+15
1.1270222e+15
1.0955406e+15
1.0709843e+15
1.2041207e+15
1.1626745e+15
1.1301318e+15
1.104757e+15
1.238722e+15
1.1960105e+15
1.1624745e+15
1.1363324e+15
1.0168111e+15
1.0033769e+15
9.9425041e+14
9.8929569e+14
1.0521582e+15
1.03827e+15
1.0288705e+15
1.0238174e+15
1.0853193e+15
1.0710018e+15
1.0613407e+15
1.0561883e+15
1.1163201e+15
1.101598e+15
1.0916889e+15
1.0864397e+15
9.8865886e+14
9.9277126e+14
1.0023702e+15
1.0185384e+15
1.0232602e+15
1.0276431e+15
1.0377264e+15
1.054628e+15
1.0556971e+15
1.0603231e+15
1.0708484e+15
1.0884235e+15
1.0860058e+15
1.0908543e+15
1.1017875e+15
1.1199862e+15
1.042765e+15
1.0770306e+15
1.1239224e+15
1.1867872e+15
1.0798859e+15
1.1155469e+15
1.1642859e+15
1.2295641e+15
1.1146323e+15
1.1515834e+15
1.2020332e+15
1.2695496e+15
1.147077e+15
1.1852258e+15
1.2372651e+15
1.3068621e+15
0
0
0
0
0
0
0
0
0
0
0
0
0
0
0
0
0
0
0
0
0
0
0
0
0
0
0
0
0
0
0
0
0
0
0
0
0
0
0
0
0
0
0
0
0
0
0
0
0
0
0
0
0
0
0
0
0
0
0
0
0
0
0
0
0
0
0
0
0
0
0
0
0
0
0
0
0
0
0
0
0
0
0
0
0
0
0
0
0
0
0
0
0
0
0
0
0
0
0
0
0
0
0
0
0
0
0
0
0
0
0
0
0
0
0
0
0
0
0
0
0
0
0
0
0
0
0
0
0
0
0
0
0
0
0
0
0
0
0
0
0
0
0
0
0
0
0
0
0
0
0
0
0
0
0
0
0
0
0
0
0
0
0
0
0
0
0
0
0
0
0
0
0
0
0
0
0
0
0
0
0
0
0
0
0
0
0
0
0
0
0
0
0
0
0
0
0
0
0
0
0
0
0
0
0
0
0
0
0
0
0
0
0
0
0
0
0
0
0
0
0
0
0
0
0
0
0
0
0
0
0
0
0
0
0
0
0
0
0
0
1.6048691e+15
1.4885986e+15
1.3978662e+15
1.3268091e+15
1.6430346e+15
1.5239952e+15
1.4310621e+15
1.3582535e+15
1.6785125e+15
1.5569007e+15
1.4619208e+15
1.387481e+15
1.711439e+15
1.5874407e+15
1.4905592e+15
1.4146024e+15
1.2709995e+15
1.227105e+15
1.1926393e+15
1.1657784e+15
1.3010502e+15
1.2560506e+15
1.2207157e+15
1.193182e+15
1.3289785e+15
1.2829476e+15
1.2468009e+15
1.2186386e+15
1.3548903e+15
1.3078985e+15
1.2709948e+15
1.2422461e+15
1.1452271e+15
1.130125e+15
1.119982e+15
1.1146404e+15
1.1721261e+15
1.1566678e+15
1.1463053e+15
1.1408764e+15
1.1971109e+15
1.1813195e+15
1.1707518e+15
1.1652412e+15
1.2202781e+15
1.2041759e+15
1.1934167e+15
1.1878299e+15
1.114258e+15
1.1193122e+15
1.130624e+15
1.1494025e+15
1.1405413e+15
1.1457868e+15
1.1574512e+15
1.1767695e+15
1.16495e+15
1.1703738e+15
1.1823668e+15
1.202188e+15
1.1875798e+15
1.19317e+15
1.2054691e+15
1.2257585e+15
1.1773136e+15
1.2165766e+15
1.2700946e+15
1.3416268e+15
1.2054443e+15
1.2457444e+15
1.300638e+15
1.3739698e+15
1.2315738e+15
1.2728387e+15
1.3290113e+15
1.4040154e+15
1.2558058e+15
1.2979675e+15
1.3553281e+15
1.4318845e+15
0
0
0
0
0
0
0
0
0
0
0
0
0
0
0
0
0
0
0
0
0
0
0
0
0
0
0
0
0
0
0
0
0
0
0
0
0
0
0
0
0
0
0
0
0
0
0
0
0
0
0
0
0
0
0
0
0
0
0
0
0
0
0
0
0
0
0
0
0
0
0
0
0
0
0
0
0
0
0
0
0
0
0
0
0
0
0
0
0
0
0
0
0
0
0
0
0
0
0
0
0
0
0
0
0
0
0
0
0
0
0
0
0
0
0
0
0
0
0
0
0
0
0
0
0
0
0
0
0
0
0
0
0
0
0
0
0
0
0
0
0
0
0
0
0
0
0
0
0
0
0
0
0
0
0
0
0
0
0
0
0
0
0
0
0
0
0
0
0
0
0
0
0
0
0
0
0
0
0
0
0
0
0
0
0
0
0
0
0
0
0
0
0
0
0
0
0
0
0
0
0
0
0
0
0
0
0
0
0
0
0
0
0
0
0
0
0
0
0
0
0
0
0
0
0
0
0
0
0
0
0
0
0
0
0
0
0
0
0
0
1.7419478e+15
1.6157383e+15
1.517093e+15
1.4397273e+15
1.7701677e+15
1.6419128e+15
1.541634e+15
1.4629623e+15
1.7962226e+15
1.666079e+15
1.5642901e+15
1.4844097e+15
1.8202304e+15
1.688346e+15
1.5851639e+15
1.5041673e+15
1.3788909e+15
1.331005e+15
1.2933966e+15
1.2641017e+15
1.4010824e+15
1.3523662e+15
1.3141029e+15
1.2843002e+15
1.4215632e+15
1.3720774e+15
1.3332066e+15
1.3029327e+15
1.4404274e+15
1.3902296e+15
1.3507965e+15
1.3200864e+15
1.2417236e+15
1.2253318e+15
1.2143943e+15
1.2087368e+15
1.2615407e+15
1.2448797e+15
1.2337767e+15
1.2280537e+15
1.2798193e+15
1.2629087e+15
1.2516522e+15
1.2458687e+15
1.2966453e+15
1.2795035e+15
1.268105e+15
1.2622657e+15
1.2085253e+15
1.2142706e+15
1.2268547e+15
1.2475796e+15
1.2278783e+15
1.233768e+15
1.2466172e+15
1.2677464e+15
1.2457271e+15
1.251751e+15
1.2648461e+15
1.2863502e+15
1.2621557e+15
1.2683041e+15
1.2816269e+15
1.3034777e+15
1.2782415e+15
1.3212357e+15
1.3796983e+15
1.4576935e+15
1.2989784e+15
1.3427443e+15
1.4022274e+15
1.4815543e+15
1.3181101e+15
1.3625899e+15
1.4230165e+15
1.5035735e+15
1.3357255e+15
1.3808645e+15
1.4421615e+15
1.5238526e+15
0
0
0
0
0
0
0
0
0
0
0
0
0
0
0
0
0
0
0
0
0
0
0
0
0
0
0
0
0
0
0
0
0
0
0
0
0
0
0
0
0
0
0
0
0
0
0
0
0
0
0
0
0
0
0
0
0
0
0
0
0
0
0
0
0
0
0
0
0
0
0
0
0
0
0
0
0
0
0
0
0
0
0
0
0
0
0
0
0
0
0
0
0
0
0
0
0
0
0
0
0
0
0
0
0
0
0
0
0
0
0
0
0
0
0
0
0
0
0
0
0
0
0
0
0
0
0
0
0
0
0
0
0
0
0
0
0
0
0
0
0
0
0
0
0
0
0
0
0
0
0
0
0
0
0
0
0
0
0
0
0
0
0
0
0
0
0
0
0
0
0
0
0
0
0
0
0
0
0
0
0
0
0
0
0
0
0
0
0
0
0
0
0
0
0
0
0
0
0
0
0
0
0
0
0
0
0
0
0
0
0
0
0
0
0
0
0
0
0
0
0
0
0
0
0
0
0
0
0
0
0
0
0
0
0
0
0
0
0
0
1.8423026e+15
1.7088176e+15
1.6043529e+15
1.5223277e+15
1.8625445e+15
1.727591e+15
1.6219487e+15
1.5389781e+15
1.8810543e+15
1.7447577e+15
1.6380372e+15
1.5542003e+15
1.8979237e+15
1.7604027e+15
1.6526983e+15
1.5680702e+15
1.4577639e+15
1.406909e+15
1.3669567e+15
1.3358436e+15
1.4736565e+15
1.4221967e+15
1.3817663e+15
1.3502819e+15
1.4881836e+15
1.4361687e+15
1.3952994e+15
1.363474e+15
1.5014184e+15
1.4488959e+15
1.4076249e+15
1.3754874e+15
1.3120997e+15
1.2947444e+15
1.2832149e+15
1.2773243e+15
1.3262592e+15
1.3087072e+15
1.297057e+15
1.2911192e+15
1.339195e+15
1.3214624e+15
1.3097015e+15
1.3037205e+15
1.350974e+15
1.333076e+15
1.3212138e+15
1.3151933e+15
1.2772436e+15
1.2835072e+15
1.2970403e+15
1.319211e+15
1.2910658e+15
1.2974356e+15
1.3111624e+15
1.3336274e+15
1.3036922e+15
1.3101596e+15
1.3240643e+15
1.3467993e+15
1.315188e+15
1.3217448e+15
1.3358122e+15
1.358794e+15
1.3519086e+15
1.3976547e+15
1.459753e+15
1.5424875e+15
1.3667385e+15
1.4130426e+15
1.4758765e+15
1.5595681e+15
1.3802895e+15
1.4271045e+15
1.4906117e+15
1.5751791e+15
1.3926304e+15
1.4399118e+15
1.5040333e+15
1.5893991e+15
0
0
0
0
0
0
0
0
0
0
0
0
0
0
0
0
0
0
0
0
0
0
0
0
0
0
0
0
0
0
0
0
0
0
0
0
0
0
0
0
0
0
0
0
0
0
0
0
0
0
0
0
0
0
0
0
0
0
0
0
0
0
0
0
0
0
0
0
0
0
0
0
0
0
0
0
0
0
0
0
0
0
0
0
0
0
0
0
0
0
0
0
0
0
0
0
0
0
0
0
0
0
0
0
0
0
0
0
0
0
0
0
0
0
0
0
0
0
0
0
0
0
0
0
0
0
0
0
0
0
0
0
0
0
0
0
0
0
0
0
0
0
0
0
0
0
0
0
0
0
0
0
0
0
0
0
0
0
0
0
0
0
0
0
0
0
0
0
0
0
0
0
0
0
0
0
0
0
0
0
0
0
0
0
0
0
0
0
0
0
0
0
0
0
0
0
0
0
0
0
0
0
0
0
0
0
0
0
0
0
0
0
0
0
0
0
0
0
0
0
0
0
0
0
0
0
0
0
0
0
0
0
0
0
0
0
0
0
0
0
1.9132376e+15
1.7746047e+15
1.6660061e+15
1.5806585e+15
1.9270742e+15
1.7874364e+15
1.678029e+15
1.59203e+15
1.9395052e+15
1.7989643e+15
1.6888294e+15
1.6022442e+15
1.9505955e+15
1.8092487e+15
1.6984642e+15
1.611355e+15
1.5134285e+15
1.4604437e+15
1.4188067e+15
1.3863848e+15
1.5242762e+15
1.4708724e+15
1.4289036e+15
1.3962236e+15
1.5340187e+15
1.4802373e+15
1.4379693e+15
1.4050566e+15
1.5427077e+15
1.4885885e+15
1.4460527e+15
1.4129317e+15
1.3616575e+15
1.3436088e+15
1.3316542e+15
1.3255978e+15
1.3713024e+15
1.3531169e+15
1.3410786e+15
1.3349896e+15
1.3799604e+15
1.3616516e+15
1.3495378e+15
1.3434194e+15
1.3876788e+15
1.3692596e+15
1.3570781e+15
1.3509335e+15
1.3256136e+15
1.3322519e+15
1.3464675e+15
1.369674e+15
1.3350246e+15
1.3417368e+15
1.3560866e+15
1.3794966e+15
1.3434718e+15
1.3502505e+15
1.3647214e+15
1.3883145e+15
1.3510013e+15
1.3578396e+15
1.3724187e+15
1.3961756e+15
1.4038252e+15
1.4515307e+15
1.5162102e+15
1.6023011e+15
1.413933e+15
1.462022e+15
1.5272062e+15
1.6139522e+15
1.4230074e+15
1.4714415e+15
1.5370793e+15
1.6244142e+15
1.4310978e+15
1.4798399e+15
1.5458828e+15
1.633743e+15
0
0
0
0
0
0
0
0
0
0
0
0
0
0
0
0
0
0
0
0
0
0
0
0
0
0
0
0
0
0
0
0
0
0
0
0
0
0
0
0
0
0
0
0
0
0
0
0
0
0
0
0
0
0
0
0
0
0
0
0
0
0
0
0
0
0
0
0
0
0
0
0
0
0
0
0
0
0
0
0
0
0
0
0
0
0
0
0
0
0
0
0
0
0
0
0
0
0
0
0
0
0
0
0
0
0
0
0
0
0
0
0
0
0
0
0
0
0
0
0
0
0
0
0
0
0
0
0
0
0
0
0
0
0
0
0
0
0
0
0
0
0
0
0
0
0
0
0
0
0
0
0
0
0
0
0
0
0
0
0
0
0
0
0
0
0
0
0
0
0
0
0
0
0
0
0
0
0
0
0
0
0
0
0
0
0
0
0
0
0
0
0
0
0
0
0
0
0
0
0
0
0
0
0
0
0
0
0
0
0
0
0
0
0
0
0
0
0
0
0
0
0
0
0
0
0
0
0
0
0
0
0
0
0
0
0
0
0
0
0
1.9604039e+15
1.8183443e+15
1.7069847e+15
1.6194113e+15
1.9689829e+15
1.8262996e+15
1.7144365e+15
1.6264565e+15
1.9763789e+15
1.8331578e+15
1.7208602e+15
1.6325291e+15
1.9826321e+15
1.8389563e+15
1.726291e+15
1.6376625e+15
1.5503901e+15
1.4959713e+15
1.4531978e+15
1.4198919e+15
1.5571075e+15
1.5024259e+15
1.459444e+15
1.4259759e+15
1.5628969e+15
1.5079882e+15
1.464826e+15
1.4312175e+15
1.5677904e+15
1.5126891e+15
1.469374e+15
1.4356463e+15
1.3945e+15
1.3759827e+15
1.3637412e+15
1.3575732e+15
1.4004618e+15
1.3818584e+15
1.3695643e+15
1.3633758e+15
1.4055978e+15
1.3869199e+15
1.3745802e+15
1.368374e+15
1.4099371e+15
1.391196e+15
1.3788175e+15
1.3725963e+15
1.3576547e+15
1.3645459e+15
1.379221e+15
1.403123e+15
1.3634694e+15
1.3704069e+15
1.385166e+15
1.4091953e+15
1.368478e+15
1.3754556e+15
1.3902874e+15
1.4144264e+15
1.3727091e+15
1.3797207e+15
1.3946141e+15
1.4188462e+15
1.4382482e+15
1.4872632e+15
1.5536644e+15
1.6419893e+15
1.4444983e+15
1.4937521e+15
1.5604669e+15
1.6491983e+15
1.449883e+15
1.4993429e+15
1.5663281e+15
1.65541e+15
1.4544327e+15
1.504067e+15
1.571281e+15
1.6606592e+15
0
0
0
0
0
0
0
0
0
0
0
0
0
0
0
0
0
0
0
0
0
0
0
0
0
0
0
0
0
0
0
0
0
0
0
0
0
0
0
0
0
0
0
0
0
0
0
0
0
0
0
0
0
0
0
0
0
0
0
0
0
0
0
0
0
0
0
0
0
0
0
0
0
0
0
0
0
0
0
0
0
0
0
0
0
0
0
0
0
0
0
0
0
0
0
0
0
0
0
0
0
0
0
0
0
0
0
0
0
0
0
0
0
0
0
0
0
0
0
0
0
0
0
0
0
0
0
0
0
0
0
0
0
0
0
0
0
0
0
0
0
0
0
0
0
0
0
0
0
0
0
0
0
0
0
0
0
0
0
0
0
0
0
0
0
0
0
0
0
0
0
0
0
0
0
0
0
0
0
0
0
0
0
0
0
0
0
0
0
0
0
0
0
0
0
0
0
0
0
0
0
0
0
0
0
0
0
0
0
0
0
0
0
0
0
0
0
0
0
0
0
0
0
0
0
0
0
0
0
0
0
0
0
0
0
0
0
0
0
0
1.9877771e+15
1.8437271e+15
1.7307591e+15
1.6418855e+15
1.9918426e+15
1.847497e+15
1.7342894e+15
1.6452217e+15
1.9948517e+15
1.8502874e+15
1.7369022e+15
1.6476904e+15
1.996822e+15
1.8521144e+15
1.7386127e+15
1.649306e+15
1.5718154e+15
1.5165551e+15
1.4731137e+15
1.4392877e+15
1.5749948e+15
1.5196084e+15
1.4760668e+15
1.4421627e+15
1.5773468e+15
1.5218666e+15
1.4782504e+15
1.444288e+15
1.5788855e+15
1.5233432e+15
1.4796775e+15
1.4456766e+15
1.4135044e+15
1.3947111e+15
1.3823006e+15
1.376067e+15
1.4163205e+15
1.3974857e+15
1.3850499e+15
1.3788064e+15
1.418402e+15
1.3995363e+15
1.3870816e+15
1.3808308e+15
1.4197615e+15
1.4008753e+15
1.3884081e+15
1.3821525e+15
1.3761871e+15
1.3832267e+15
1.3981709e+15
1.4224798e+15
1.3789323e+15
1.3859942e+15
1.4009787e+15
1.4253484e+15
1.380961e+15
1.3880395e+15
1.403054e+15
1.4274689e+15
1.3822856e+15
1.3893751e+15
1.4044094e+15
1.4288541e+15
1.4581734e+15
1.5079514e+15
1.5753537e+15
1.6649758e+15
1.4611269e+15
1.5110185e+15
1.5785698e+15
1.6683844e+15
1.4633103e+15
1.5132862e+15
1.5809479e+15
1.6709051e+15
1.4647371e+15
1.5147684e+15
1.5825024e+15
1.6725531e+15
0
0
0
0
0
0
0
0
0
0
0
0
0
0
0
0
0
0
0
0
0
0
0
0
0
0
0
0
0
0
0
0
0
0
0
0
0
0
0
0
0
0
0
0
0
0
0
0
0
0
0
0
0
0
0
0
0
0
0
0
0
0
0
0
0
0
0
0
0
0
0
0
0
0
0
0
0
0
0
0
0
0
0
0
0
0
0
0
0
0
0
0
0
0
0
0
0
0
0
0
0
0
0
0
0
0
0
0
0
0
0
0
0
0
0
0
0
0
0
0
0
0
0
0
0
0
0
0
0
0
0
0
0
0
0
0
0
0
0
0
0
0
0
0
0
0
0
0
0
0
0
0
0
0
0
0
0
0
0
0
0
0
0
0
0
0
0
0
0
0
0
0
0
0
0
0
0
0
0
0
0
0
0
0
0
0
0
0
0
0
0
0
0
0
0
0
0
0
0
0
0
0
0
0
0
0
0
0
0
0
0
0
0
0
0
0
0
0
0
0
0
0
0
0
0
0
0
0
0
0
0
0
0
0
0
0
0
0
0
0
1.9977653e+15
1.8529893e+15
1.7394314e+15
1.6500785e+15
1.9976883e+15
1.8529183e+15
1.739364e+15
1.6500134e+15
1.9965921e+15
1.8519023e+15
1.7384116e+15
1.6491115e+15
1.9944727e+15
1.8499375e+15
1.7365704e+15
1.6473694e+15
1.5796202e+15
1.5240474e+15
1.4803572e+15
1.4463371e+15
1.5795564e+15
1.5239841e+15
1.4802943e+15
1.4462743e+15
1.5786947e+15
1.5231544e+15
1.4794896e+15
1.445489e+15
1.5770319e+15
1.5215548e+15
1.4779399e+15
1.4439781e+15
1.4204076e+15
1.4015112e+15
1.3890377e+15
1.3827798e+15
1.4203449e+15
1.4014486e+15
1.3889752e+15
1.3827174e+15
1.4195742e+15
1.4006882e+15
1.3882212e+15
1.381966e+15
1.4180924e+15
1.3992271e+15
1.3867728e+15
1.3805226e+15
1.3829144e+15
1.3900094e+15
1.4050535e+15
1.4295129e+15
1.3828521e+15
1.3899471e+15
1.4049911e+15
1.42945e+15
1.3820994e+15
1.389189e+15
1.4042229e+15
1.4286663e+15
1.3806534e+15
1.387732e+15
1.4027459e+15
1.4271587e+15
1.4654161e+15
1.5154743e+15
1.5832432e+15
1.6733385e+15
1.4653524e+15
1.515409e+15
1.5831755e+15
1.6732673e+15
1.4645467e+15
1.5145736e+15
1.5823004e+15
1.6723403e+15
1.462996e+15
1.5129645e+15
1.5806144e+15
1.670554e+15
0
0
0
0
0
0
0
0
0
0
0
0
0
0
0
0
0
0
0
0
0
0
0
0
0
0
0
0
0
0
0
0
0
0
0
0
0
0
0
0
0
0
0
0
0
0
0
0
0
0
0
0
0
0
0
0
0
0
0
0
0
0
0
0
0
0
0
0
0
0
0
0
0
0
0
0
0
0
0
0
0
0
0
0
0
0
0
0
0
0
0
0
0
0
0
0
0
0
0
0
0
0
0
0
0
0
0
0
0
0
0
0
0
0
0
0
0
0
0
0
0
0
0
0
0
0
0
0
0
0
0
0
0
0
0
0
0
0
0
0
0
0
0
0
0
0
0
0
0
0
0
0
0
0
0
0
0
0
0
0
0
0
0
0
0
0
0
0
0
0
0
0
0
0
0
0
0
0
0
0
0
0
0
0
0
0
0
0
0
0
0
0
0
0
0
0
0
0
0
0
0
0
0
0
0
0
0
0
0
0
0
0
0
0
0
0
0
0
0
0
0
0
0
0
0
0
0
0
0
0
0
0
0
0
0
0
0
0
0
0
1.9913203e+15
1.847015e+15
1.7338323e+15
1.6447793e+15
1.98712e+15
1.8431209e+15
1.730184e+15
1.6413285e+15
1.9818516e+15
1.8382364e+15
1.725608e+15
1.6370004e+15
1.9754894e+15
1.8323377e+15
1.7200816e+15
1.6317735e+15
1.5745604e+15
1.519178e+15
1.4756381e+15
1.4417345e+15
1.5712682e+15
1.5160125e+15
1.4725728e+15
1.4387472e+15
1.5671392e+15
1.5120426e+15
1.4687289e+15
1.4350013e+15
1.5621528e+15
1.5072485e+15
1.464087e+15
1.4304777e+15
1.4158927e+15
1.3970582e+15
1.384623e+15
1.3783804e+15
1.412964e+15
1.394171e+15
1.3817613e+15
1.3755287e+15
1.4092917e+15
1.3905508e+15
1.378173e+15
1.3719531e+15
1.4048572e+15
1.3861791e+15
1.37384e+15
1.3676354e+15
1.3785071e+15
1.3855693e+15
1.400553e+15
1.4249201e+15
1.3756499e+15
1.3826901e+15
1.3976336e+15
1.4219394e+15
1.3720674e+15
1.37908e+15
1.3939728e+15
1.4182017e+15
1.3677413e+15
1.3747204e+15
1.3895521e+15
1.413688e+15
1.4606929e+15
1.5105745e+15
1.5781097e+15
1.6679e+15
1.4576262e+15
1.5073918e+15
1.5747741e+15
1.6643655e+15
1.4537805e+15
1.5034005e+15
1.5705909e+15
1.6599329e+15
1.4491363e+15
1.4985804e+15
1.5655392e+15
1.6545799e+15
0
0
0
0
0
0
0
0
0
0
0
0
0
0
0
0
0
0
0
0
0
0
0
0
0
0
0
0
0
0
0
0
0
0
0
0
0
0
0
0
0
0
0
0
0
0
0
0
0
0
0
0
0
0
0
0
0
0
0
0
0
0
0
0
0
0
0
0
0
0
0
0
0
0
0
0
0
0
0
0
0
0
0
0
0
0
0
0
0
0
0
0
0
0
0
0
0
0
0
0
0
0
0
0
0
0
0
0
0
0
0
0
0
0
0
0
0
0
0
0
0
0
0
0
0
0
0
0
0
0
0
0
0
0
0
0
0
0
0
0
0
0
0
0
0
0
0
0
0
0
0
0
0
0
0
0
0
0
0
0
0
0
0
0
0
0
0
0
0
0
0
0
0
0
0
0
0
0
0
0
0
0
0
0
0
0
0
0
0
0
0
0
0
0
0
0
0
0
0
0
0
0
0
0
0
0
0
0
0
0
0
0
0
0
0
0
0
0
0
0
0
0
0
0
0
0
0
0
0
0
0
0
0
0
0
0
0
0
0
0
1.968002e+15
1.8253957e+15
1.7135778e+15
1.625622e+15
1.9593529e+15
1.8173764e+15
1.7060644e+15
1.6185154e+15
1.9494997e+15
1.8082406e+15
1.6975046e+15
1.6104186e+15
1.9383948e+15
1.7979439e+15
1.6878567e+15
1.6012919e+15
1.5562842e+15
1.5016061e+15
1.4586237e+15
1.4251536e+15
1.5495042e+15
1.4950871e+15
1.4523113e+15
1.4190018e+15
1.541779e+15
1.4876589e+15
1.4451181e+15
1.4119914e+15
1.5330706e+15
1.4792846e+15
1.4370082e+15
1.4040869e+15
1.3996378e+15
1.3810336e+15
1.36874e+15
1.3625533e+15
1.3936069e+15
1.3750881e+15
1.3628469e+15
1.3566809e+15
1.3867338e+15
1.368312e+15
1.3561305e+15
1.349988e+15
1.3789839e+15
1.3606711e+15
1.3485567e+15
1.3424407e+15
1.3626493e+15
1.3695891e+15
1.3843488e+15
1.4083753e+15
1.3567655e+15
1.3636597e+15
1.3783364e+15
1.4022366e+15
1.3500596e+15
1.3569021e+15
1.3714842e+15
1.3952407e+15
1.3424976e+15
1.3492819e+15
1.3637575e+15
1.3873522e+15
1.4436701e+15
1.4929073e+15
1.5595934e+15
1.6482797e+15
1.4373541e+15
1.4863523e+15
1.5527235e+15
1.6410004e+15
1.4301563e+15
1.4788824e+15
1.544895e+15
1.6327056e+15
1.4220406e+15
1.4704601e+15
1.5360688e+15
1.6233537e+15
0
0
0
0
0
0
0
0
0
0
0
0
0
0
0
0
0
0
0
0
0
0
0
0
0
0
0
0
0
0
0
0
0
0
0
0
0
0
0
0
0
0
0
0
0
0
0
0
0
0
0
0
0
0
0
0
0
0
0
0
0
0
0
0
0
0
0
0
0
0
0
0
0
0
0
0
0
0
0
0
0
0
0
0
0
0
0
0
0
0
0
0
0
0
0
0
0
0
0
0
0
0
0
0
0
0
0
0
0
0
0
0
0
0
0
0
0
0
0
0
0
0
0
0
0
0
0
0
0
0
0
0
0
0
0
0
0
0
0
0
0
0
0
0
0
0
0
0
0
0
0
0
0
0
0
0
0
0
0
0
0
0
0
0
0
0
0
0
0
0
0
0
0
0
0
0
0
0
0
0
0
0
0
0
0
0
0
0
0
0
0
0
0
0
0
0
0
0
0
0
0
0
0
0
0
0
0
0
0
0
0
0
0
0
0
0
0
0
0
0
0
0
0
0
0
0
0
0
0
0
0
0
0
0
0
0
0
0
0
0
1.9259846e+15
1.7864367e+15
1.6770739e+15
1.5910909e+15
1.9122099e+15
1.7736639e+15
1.6651045e+15
1.5797663e+15
1.8970059e+15
1.7595656e+15
1.651892e+15
1.5672644e+15
1.8803023e+15
1.7440761e+15
1.6373747e+15
1.5535263e+15
1.5233362e+15
1.4699228e+15
1.4279412e+15
1.3952489e+15
1.5125286e+15
1.4595279e+15
1.4178725e+15
1.3854337e+15
1.500596e+15
1.4480495e+15
1.4067532e+15
1.3745932e+15
1.487482e+15
1.4354331e+15
1.39453e+15
1.3626752e+15
1.3703181e+15
1.3521269e+15
1.3400872e+15
1.3340007e+15
1.3606934e+15
1.3426368e+15
1.3306797e+15
1.3246258e+15
1.3500625e+15
1.3321538e+15
1.3202877e+15
1.3142697e+15
1.3383739e+15
1.3206271e+15
1.3088605e+15
1.3028818e+15
1.3340413e+15
1.3407607e+15
1.3551175e+15
1.3785317e+15
1.3246483e+15
1.3312958e+15
1.3455212e+15
1.3687353e+15
1.3142723e+15
1.3208407e+15
1.3349212e+15
1.3579148e+15
1.3028626e+15
1.3093442e+15
1.323266e+15
1.3460179e+15
1.4129663e+15
1.4610435e+15
1.5262009e+15
1.6128986e+15
1.4028886e+15
1.4505862e+15
1.5152428e+15
1.6012888e+15
1.3917581e+15
1.4390371e+15
1.5031414e+15
1.5884682e+15
1.379521e+15
1.4263407e+15
1.4898384e+15
1.5743752e+15
0
0
0
0
0
0
0
0
0
0
0
0
0
0
0
0
0
0
0
0
0
0
0
0
0
0
0
0
0
0
0
0
0
0
0
0
0
0
0
0
0
0
0
0
0
0
0
0
0
0
0
0
0
0
0
0
0
0
0
0
0
0
0
0
0
0
0
0
0
0
0
0
0
0
0
0
0
0
0
0
0
0
0
0
0
0
0
0
0
0
0
0
0
0
0
0
0
0
0
0
0
0
0
0
0
0
0
0
0
0
0
0
0
0
0
0
0
0
0
0
0
0
0
0
0
0
0
0
0
0
0
0
0
0
0
0
0
0
0
0
0
0
0
0
0
0
0
0
0
0
0
0
0
0
0
0
0
0
0
0
0
0
0
0
0
0
0
0
0
0
0
0
0
0
0
0
0
0
0
0
0
0
0
0
0
0
0
0
0
0
0
0
0
0
0
0
0
0
0
0
0
0
0
0
0
0
0
0
0
0
0
0
0
0
0
0
0
0
0
0
0
0
0
0
0
0
0
0
0
0
0
0
0
0
0
0
0
0
0
0
1.8620228e+15
1.7271248e+15
1.621486e+15
1.5384888e+15
1.842086e+15
1.708636e+15
1.6041547e+15
1.5220839e+15
1.820405e+15
1.6885289e+15
1.5853045e+15
1.5042389e+15
1.796888e+15
1.6667181e+15
1.5648552e+15
1.4848771e+15
1.4731256e+15
1.4216195e+15
1.381145e+15
1.349623e+15
1.4574614e+15
1.4065453e+15
1.3665365e+15
1.3353757e+15
1.4404196e+15
1.3901427e+15
1.350638e+15
1.3198682e+15
1.4219261e+15
1.3723396e+15
1.3333793e+15
1.3030314e+15
1.3255716e+15
1.3080012e+15
1.2963431e+15
1.2904071e+15
1.3115956e+15
1.2942167e+15
1.2826763e+15
1.2767868e+15
1.2963817e+15
1.27921e+15
1.267797e+15
1.2619576e+15
1.2798616e+15
1.2629133e+15
1.2516375e+15
1.2458522e+15
1.2903642e+15
1.2967512e+15
1.3104997e+15
1.3329876e+15
1.276718e+15
1.2830022e+15
1.2965622e+15
1.3187628e+15
1.2618607e+15
1.2680333e+15
1.2813889e+15
1.3032779e+15
1.2457248e+15
1.2517768e+15
1.2649112e+15
1.2864629e+15
1.3661192e+15
1.4124366e+15
1.4752711e+15
1.5589434e+15
1.3514898e+15
1.3972601e+15
1.4593716e+15
1.5421013e+15
1.3355656e+15
1.3807416e+15
1.4420673e+15
1.5237719e+15
1.3182749e+15
1.362807e+15
1.4232808e+15
1.5038735e+15
0
0
0
0
0
0
0
0
0
0
0
0
0
0
0
0
0
0
0
0
0
0
0
0
0
0
0
0
0
0
0
0
0
0
0
0
0
0
0
0
0
0
0
0
0
0
0
0
0
0
0
0
0
0
0
0
0
0
0
0
0
0
0
0
0
0
0
0
0
0
0
0
0
0
0
0
0
0
0
0
0
0
0
0
0
0
0
0
0
0
0
0
0
0
0
0
0
0
0
0
0
0
0
0
0
0
0
0
0
0
0
0
0
0
0
0
0
0
0
0
0
0
0
0
0
0
0
0
0
0
0
0
0
0
0
0
0
0
0
0
0
0
0
0
0
0
0
0
0
0
0
0
0
0
0
0
0
0
0
0
0
0
0
0
0
0
0
0
0
0
0
0
0
0
0
0
0
0
0
0
0
0
0
0
0
0
0
0
0
0
0
0
0
0
0
0
0
0
0
0
0
0
0
0
0
0
0
0
0
0
0
0
0
0
0
0
0
0
0
0
0
0
0
0
0
0
0
0
0
0
0
0
0
0
0
0
0
0
0
0
1.7714386e+15
1.6431141e+15
1.542722e+15
1.4639178e+15
1.7439564e+15
1.6176234e+15
1.5188167e+15
1.4412765e+15
1.7143381e+15
1.5901497e+15
1.4930482e+15
1.4168659e+15
1.6824779e+15
1.5605943e+15
1.4653232e+15
1.3905965e+15
1.4019029e+15
1.3530604e+15
1.3146862e+15
1.2847922e+15
1.3802687e+15
1.3322257e+15
1.2944808e+15
1.265074e+15
1.3569389e+15
1.309753e+15
1.2726823e+15
1.2437968e+15
1.3318267e+15
1.2855575e+15
1.2492069e+15
1.2208779e+15
1.2619631e+15
1.2452549e+15
1.2341266e+15
1.2283993e+15
1.2426102e+15
1.2261594e+15
1.2151891e+15
1.2095236e+15
1.2217237e+15
1.205548e+15
1.1947463e+15
1.1891463e+15
1.1992214e+15
1.1833388e+15
1.1727161e+15
1.1671851e+15
1.2282387e+15
1.2341605e+15
1.2470562e+15
1.2682435e+15
1.2093271e+15
1.2151083e+15
1.2277467e+15
1.2485413e+15
1.1889104e+15
1.1945402e+15
1.2069016e+15
1.2272735e+15
1.1669061e+15
1.1723725e+15
1.184436e+15
1.2043534e+15
1.2995416e+15
1.3433775e+15
1.4029298e+15
1.4823191e+15
1.2792851e+15
1.3223698e+15
1.3809272e+15
1.4590166e+15
1.2574205e+15
1.299696e+15
1.3571811e+15
1.4338686e+15
1.2338586e+15
1.2752637e+15
1.3315946e+15
1.4067728e+15
0
0
0
0
0
0
0
0
0
0
0
0
0
0
0
0
0
0
0
0
0
0
0
0
0
0
0
0
0
0
0
0
0
0
0
0
0
0
0
0
0
0
0
0
0
0
0
0
0
0
0
0
0
0
0
0
0
0
0
0
0
0
0
0
0
0
0
0
0
0
0
0
0
0
0
0
0
0
0
0
0
0
0
0
0
0
0
0
0
0
0
0
0
0
0
0
0
0
0
0
0
0
0
0
0
0
0
0
0
0
0
0
0
0
0
0
0
0
0
0
0
0
0
0
0
0
0
0
0
0
0
0
0
0
0
0
0
0
0
0
0
0
0
0
0
0
0
0
0
0
0
0
0
0
0
0
0
0
0
0
0
0
0
0
0
0
0
0
0
0
0
0
0
0
0
0
0
0
0
0
0
0
0
0
0
0
0
0
0
0
0
0
0
0
0
0
0
0
0
0
0
0
0
0
0
0
0
0
0
0
0
0
0
0
0
0
0
0
0
0
0
0
0
0
0
0
0
0
0
0
0
0
0
0
0
0
0
0
0
0
1.6482697e+15
1.5288582e+15
1.4355475e+15
1.3623778e+15
1.6116089e+15
1.4948432e+15
1.4036276e+15
1.3321193e+15
1.5723944e+15
1.4584545e+15
1.3694727e+15
1.2997331e+15
1.5305328e+15
1.4196036e+15
1.3329977e+15
1.2651355e+15
1.304844e+15
1.2595527e+15
1.2239695e+15
1.1962327e+15
1.2759026e+15
1.2316518e+15
1.1968837e+15
1.1697751e+15
1.2449159e+15
1.2017688e+15
1.1678639e+15
1.1414191e+15
1.2118011e+15
1.1698209e+15
1.1368266e+15
1.1110803e+15
1.1750189e+15
1.1594471e+15
1.1490138e+15
1.1435547e+15
1.1490301e+15
1.1337866e+15
1.1235523e+15
1.1181672e+15
1.1211684e+15
1.1062698e+15
1.096243e+15
1.0909325e+15
1.0913479e+15
1.076809e+15
1.0669964e+15
1.061759e+15
1.1432278e+15
1.148518e+15
1.160261e+15
1.1796901e+15
1.1177867e+15
1.1228861e+15
1.1342844e+15
1.153189e+15
1.0904909e+15
1.0953832e+15
1.10641e+15
1.124751e+15
1.0612465e+15
1.0659128e+15
1.0765383e+15
1.0942731e+15
1.208506e+15
1.2489757e+15
1.3040662e+15
1.3776212e+15
1.1812647e+15
1.2207304e+15
1.2744889e+15
1.3463005e+15
1.1520324e+15
1.1904207e+15
1.24275e+15
1.3126908e+15
1.1207015e+15
1.157934e+15
1.2087306e+15
1.2766648e+15
0
0
0
0
0
0
0
0
0
0
0
0
0
0
0
0
0
0
0
0
0
0
0
0
0
0
0
0
0
0
0
0
0
0
0
0
0
0
0
0
0
0
0
0
0
0
0
0
0
0
0
0
0
0
0
0
0
0
0
0
0
0
0
0
0
0
0
0
0
0
0
0
0
0
0
0
0
0
0
0
0
0
0
0
0
0
0
0
0
0
0
0
0
0
0
0
0
0
0
0
0
0
0
0
0
0
0
0
0
0
0
0
0
0
0
0
0
0
0
0
0
0
0
0
0
0
0
0
0
0
0
0
0
0
0
0
0
0
0
0
0
0
0
0
0
0
0
0
0
0
0
0
0
0
0
0
0
0
0
0
0
0
0
0
0
0
0
0
0
0
0
0
0
0
0
0
0
0
0
0
0
0
0
0
0
0
0
0
0
0
0
0
0
0
0
0
0
0
0
0
0
0
0
0
0
0
0
0
0
0
0
0
0
0
0
0
0
0
0
0
0
0
0
0
0
0
0
0
0
0
0
0
0
0
0
0
0
0
0
0
1.485942e+15
1.3782123e+15
1.2941263e+15
1.228251e+15
1.4385577e+15
1.3342182e+15
1.2527962e+15
1.1890162e+15
1.3883406e+15
1.2875812e+15
1.2089651e+15
1.1473855e+15
1.3352864e+15
1.238293e+15
1.1626194e+15
1.103339e+15
1.1764821e+15
1.1357309e+15
1.1036928e+15
1.0786775e+15
1.1388937e+15
1.0994307e+15
1.0683912e+15
1.0441356e+15
1.098986e+15
1.0608658e+15
1.030862e+15
1.0073893e+15
1.0567323e+15
1.0200019e+15
9.9106284e+14
9.6838755e+14
1.0594849e+15
1.0453181e+15
1.0357233e+15
1.0305545e+15
1.0255006e+15
1.0117137e+15
1.002336e+15
9.9722645e+14
9.8932333e+14
9.7591814e+14
9.6675002e+14
9.6168361e+14
9.5089327e+14
9.37862e+14
9.2888639e+14
9.238368e+14
1.0299579e+15
1.0343752e+15
1.0445657e+15
1.0616469e+15
9.9652758e+14
1.0006681e+15
1.010384e+15
1.0267583e+15
9.6085716e+14
9.6468532e+14
9.7387921e+14
9.8948477e+14
9.2284695e+14
9.2631633e+14
9.3492943e+14
9.4969235e+14
1.0871586e+15
1.1231505e+15
1.1723032e+15
1.2380862e+15
1.0512824e+15
1.0859413e+15
1.1333299e+15
1.1968062e+15
1.0129414e+15
1.0461647e+15
1.0916577e+15
1.1526586e+15
9.7198902e+14
1.0036604e+15
1.0471111e+15
1.1054514e+15
0
0
0
0
0
0
0
0
0
0
0
0
0
0
0
0
0
0
0
0
0
0
0
0
0
0
0
0
0
0
0
0
0
0
0
0
0
0
0
0
0
0
0
0
0
0
0
0
0
0
0
0
0
0
0
0
0
0
0
0
0
0
0
0
0
0
0
0
0
0
0
0
0
0
0
0
0
0
0
0
0
0
0
0
0
0
0
0
0
0
0
0
0
0
0
0
0
0
0
0
0
0
0
0
0
0
0
0
0
0
0
0
0
0
0
0
0
0
0
0
0
0
0
0
0
0
0
0
0
0
0
0
0
0
0
0
0
0
0
0
0
0
0
0
0
0
0
0
0
0
0
0
0
0
0
0
0
0
0
0
0
0
0
0
0
0
0
0
0
0
0
0
0
0
0
0
0
0
0
0
0
0
0
0
0
0
0
0
0
0
0
0
0
0
0
0
0