/*--------------------------------*- C++ -*----------------------------------*\
| =========                 |                                                 |
| \\      /  F ield         | OpenFOAM: The Open Source CFD Toolbox           |
|  \\    /   O peration     | Version:  1.4.1-dev                             |
|   \\  /    A nd           | Web:      http://www.openfoam.org               |
|    \\/     M anipulation  |                                                 |
\*---------------------------------------------------------------------------*/

FoamFile
{
    version 2.0;
    format ascii;

    root "/home/cliffoi/OpenFOAM/cliffoi-1.4.1-dev/run/diffusionFoam";
    case "oecd_simplified_2G";
    instance "0";
    local "";

    class volScalarField;
    object dn_lamC1;
}

// * * * * * * * * * * * * * * * * * * * * * * * * * * * * * * * * * * * * * //

dimensions      [0 -3 -1 0 0 0 0];

internalField   nonuniform List<scalar> 
9280
(
0
0
0
0
0
0
0
0
0
0
0
0
0
0
0
0
0
0
0
0
0
0
0
0
0
0
0
0
0
0
0
0
0
0
0
0
0
0
0
0
0
0
0
0
0
0
0
0
0
0
0
0
0
0
0
0
0
0
0
0
0
0
0
0
0
0
0
0
0
0
0
0
0
0
0
0
0
0
0
0
0
0
0
0
0
0
0
0
0
0
0
0
0
0
0
0
0
0
0
0
0
0
0
0
0
0
0
0
0
0
0
0
0
0
0
0
0
0
0
0
0
0
0
0
0
0
0
0
0
0
0
0
0
0
0
0
0
0
0
0
0
0
0
0
0
0
0
0
0
0
0
0
0
0
0
0
0
0
0
0
0
0
0
0
0
0
0
0
0
0
0
0
0
0
0
0
0
0
0
0
0
0
0
0
0
0
0
0
0
0
0
0
0
0
0
0
0
0
0
0
0
0
0
0
0
0
0
0
0
0
0
0
0
0
0
0
0
0
0
0
0
0
0
0
0
0
0
0
0
0
0
0
0
0
0
0
0
0
0
0
0
0
0
0
0
0
0
0
0
0
0
0
0
0
0
0
0
0
0
0
0
0
0
0
0
0
0
0
0
0
0
0
0
0
0
0
0
0
0
0
0
0
0
0
0
0
0
0
0
0
0
0
0
0
0
0
0
0
0
0
0
0
0
0
0
0
0
0
0
0
0
0
0
0
0
0
0
0
0
0
0
0
0
0
0
0
0
0
0
0
0
0
0
0
0
0
0
0
0
0
0
0
0
0
0
0
0
0
0
0
0
0
0
0
0
0
0
0
0
0
0
0
0
0
0
0
0
0
0
0
0
0
0
0
0
0
0
0
0
0
0
0
0
0
0
0
0
0
0
0
0
0
0
0
0
0
0
0
0
0
0
0
0
0
0
0
0
0
0
0
0
0
0
0
0
0
0
0
0
0
0
0
0
0
0
0
0
0
0
0
0
0
0
0
0
0
0
0
0
0
0
0
0
0
0
0
0
0
0
0
0
0
0
0
0
0
0
0
0
0
0
0
0
0
0
0
0
0
0
0
0
0
0
0
0
0
0
0
0
0
0
0
0
0
0
0
0
0
0
0
0
0
0
0
0
0
0
0
0
0
0
0
0
0
0
0
0
0
0
0
0
0
0
0
0
0
0
0
0
0
0
0
0
0
0
0
0
0
0
0
0
0
0
0
0
0
0
0
0
0
0
0
0
0
0
0
0
0
0
0
0
0
0
0
0
0
0
0
0
0
0
0
0
0
0
0
0
0
0
0
0
0
0
0
0
0
0
0
0
0
0
0
0
0
0
0
0
0
0
0
0
0
0
0
0
0
0
0
0
0
0
0
0
0
0
0
0
0
0
0
0
0
0
0
0
0
0
0
0
0
0
0
0
0
0
0
0
0
0
0
0
0
0
0
0
0
0
0
0
0
0
0
0
0
0
0
0
0
0
0
0
0
0
0
0
0
0
0
0
0
0
0
0
0
0
0
0
0
0
0
0
0
0
0
0
0
0
0
0
0
0
0
0
0
0
0
0
0
0
0
0
0
0
0
0
0
0
0
0
0
0
0
0
0
0
0
0
0
0
0
0
0
0
0
0
0
0
0
0
0
0
0
0
0
0
0
0
0
0
0
0
0
0
0
0
0
0
0
0
0
0
0
0
0
0
0
0
0
0
0
0
0
0
0
0
0
0
0
0
0
0
0
0
0
0
0
0
0
0
0
0
0
0
0
0
0
0
0
0
0
0
0
0
0
0
0
0
0
0
0
0
0
0
0
0
0
0
0
0
0
0
0
0
0
0
0
0
0
0
0
0
0
0
0
0
0
0
0
0
0
0
0
0
0
0
0
0
0
0
0
0
0
0
0
0
0
0
0
0
0
0
0
0
0
0
0
0
0
0
0
0
0
0
0
0
0
0
0
0
0
0
0
0
0
0
0
0
0
0
0
0
0
0
0
0
0
0
0
0
0
0
0
0
0
0
0
0
0
0
0
0
0
0
0
0
0
0
0
0
0
0
0
0
0
0
0
0
0
0
0
0
0
0
0
0
0
0
0
0
0
0
0
0
0
0
0
0
0
0
0
0
0
0
0
0
0
0
0
0
0
0
0
0
0
0
0
0
0
0
0
0
0
0
0
0
0
0
0
0
0
0
0
0
0
0
0
0
0
0
0
0
0
0
0
0
0
0
0
0
0
0
0
0
0
0
0
0
0
0
0
0
0
0
0
0
0
0
0
0
0
0
0
0
0
0
0
0
0
0
0
0
0
0
0
0
0
0
0
0
0
0
0
0
0
0
0
0
0
0
0
0
0
0
0
0
0
0
0
0
0
0
0
0
0
0
0
0
0
0
0
0
0
0
0
0
0
6.3607324e+13
6.0803227e+13
5.8693107e+13
5.7071217e+13
6.4986955e+13
6.1145802e+13
5.8217497e+13
5.5962799e+13
6.8182701e+13
6.3666845e+13
6.0191331e+13
5.7499613e+13
7.2040707e+13
6.7031814e+13
6.3157212e+13
6.0144996e+13
5.5791714e+13
5.4750611e+13
5.3873924e+13
5.3109719e+13
5.4204501e+13
5.2812109e+13
5.1690482e+13
5.0771534e+13
5.5399017e+13
5.3745687e+13
5.2433358e+13
5.1385037e+13
5.7790321e+13
5.5939618e+13
5.4478908e+13
5.3325168e+13
5.2422739e+13
5.179081e+13
5.1202527e+13
5.0655939e+13
5.0008269e+13
4.9370611e+13
4.8842637e+13
4.8420956e+13
5.0546939e+13
4.9884167e+13
4.9377804e+13
4.9023152e+13
5.2420034e+13
5.1725322e+13
5.1219984e+13
5.089826e+13
5.0158057e+13
4.9725148e+13
4.9383846e+13
4.917323e+13
4.8114062e+13
4.7942591e+13
4.7940467e+13
4.8157004e+13
4.8828979e+13
4.8817665e+13
4.9026252e+13
4.9508393e+13
5.0768855e+13
5.0855054e+13
5.1195749e+13
5.1847419e+13
4.9148204e+13
4.9384715e+13
4.998783e+13
5.1104376e+13
4.8660081e+13
4.9540556e+13
5.0918106e+13
5.2948625e+13
5.0337315e+13
5.1609911e+13
5.3452162e+13
5.6026141e+13
5.2887156e+13
5.4416905e+13
5.6569158e+13
5.951445e+13
0
0
0
0
0
0
0
0
0
0
0
0
0
0
0
0
0
0
0
0
0
0
0
0
0
0
0
0
0
0
0
0
0
0
0
0
0
0
0
0
0
0
0
0
0
0
0
0
0
0
0
0
0
0
0
0
0
0
0
0
0
0
0
0
0
0
0
0
0
0
0
0
0
0
0
0
0
0
0
0
0
0
0
0
0
0
0
0
0
0
0
0
0
0
0
0
0
0
0
0
0
0
0
0
0
0
0
0
0
0
0
0
0
0
0
0
0
0
0
0
0
0
0
0
0
0
0
0
0
0
0
0
0
0
0
0
0
0
0
0
0
0
0
0
0
0
0
0
0
0
0
0
0
0
0
0
0
0
0
0
0
0
0
0
0
0
0
0
0
0
0
0
0
0
0
0
0
0
0
0
0
0
0
0
0
0
0
0
0
0
0
0
0
0
0
0
0
0
0
0
0
0
0
0
0
0
0
0
0
0
0
0
0
0
0
0
0
0
0
0
0
0
0
0
0
0
0
0
0
0
0
0
0
0
0
0
0
0
0
0
7.6063022e+13
7.0657988e+13
6.6465496e+13
6.3198992e+13
8.0029582e+13
7.4285054e+13
6.9822116e+13
6.6340325e+13
8.3844071e+13
7.779691e+13
7.3093958e+13
6.9421721e+13
8.7466499e+13
8.1143493e+13
7.6222226e+13
7.2377012e+13
6.0642444e+13
5.8633709e+13
5.705224e+13
5.5810029e+13
6.3613124e+13
6.1470388e+13
5.9785534e+13
5.8466045e+13
6.6543749e+13
6.428243e+13
6.2505544e+13
6.1116375e+13
6.9362154e+13
6.6993034e+13
6.5132153e+13
6.3678875e+13
5.4845013e+13
5.4116389e+13
5.3601427e+13
5.3293537e+13
5.7446561e+13
5.6683984e+13
5.6154147e+13
5.5849801e+13
6.0046523e+13
5.9250791e+13
5.8703733e+13
5.8397554e+13
6.2561965e+13
6.1734286e+13
6.1169222e+13
6.0858504e+13
5.3201405e+13
5.3349107e+13
5.3777189e+13
5.4544746e+13
5.5779717e+13
5.5968816e+13
5.6459316e+13
5.731293e+13
5.8341182e+13
5.8560426e+13
5.909918e+13
6.0021742e+13
6.081126e+13
6.1054183e+13
6.1632807e+13
6.2613929e+13
5.5732616e+13
5.7447879e+13
5.9829925e+13
6.3058481e+13
5.8614244e+13
6.0475482e+13
6.3042934e+13
6.6505465e+13
6.1416374e+13
6.3400304e+13
6.6126496e+13
6.9792603e+13
6.4089336e+13
6.6181036e+13
6.9048339e+13
7.2897218e+13
0
0
0
0
0
0
0
0
0
0
0
0
0
0
0
0
0
0
0
0
0
0
0
0
0
0
0
0
0
0
0
0
0
0
0
0
0
0
0
0
0
0
0
0
0
0
0
0
0
0
0
0
0
0
0
0
0
0
0
0
0
0
0
0
0
0
0
0
0
0
0
0
0
0
0
0
0
0
0
0
0
0
0
0
0
0
0
0
0
0
0
0
0
0
0
0
0
0
0
0
0
0
0
0
0
0
0
0
0
0
0
0
0
0
0
0
0
0
0
0
0
0
0
0
0
0
0
0
0
0
0
0
0
0
0
0
0
0
0
0
0
0
0
0
0
0
0
0
0
0
0
0
0
0
0
0
0
0
0
0
0
0
0
0
0
0
0
0
0
0
0
0
0
0
0
0
0
0
0
0
0
0
0
0
0
0
0
0
0
0
0
0
0
0
0
0
0
0
0
0
0
0
0
0
0
0
0
0
0
0
0
0
0
0
0
0
0
0
0
0
0
0
0
0
0
0
0
0
0
0
0
0
0
0
0
0
0
0
0
0
9.0882893e+13
8.4305465e+13
7.9182948e+13
7.5178318e+13
9.4091457e+13
8.7277988e+13
8.1968694e+13
7.7816039e+13
9.7096177e+13
9.0063156e+13
8.4579987e+13
8.028941e+13
9.9903793e+13
9.2666399e+13
8.7021202e+13
8.2601961e+13
7.2037263e+13
6.9568633e+13
6.7630005e+13
6.6117085e+13
7.4557716e+13
7.1996502e+13
6.9985393e+13
6.8416686e+13
7.6921714e+13
7.4274045e+13
7.2195149e+13
7.0574156e+13
7.9132121e+13
7.6403621e+13
7.4261268e+13
7.2591257e+13
6.4955991e+13
6.4097784e+13
6.3514768e+13
6.3198251e+13
6.7214038e+13
6.6326832e+13
6.5726368e+13
6.5403568e+13
6.9332434e+13
6.8417803e+13
6.7800633e+13
6.7471488e+13
7.131283e+13
7.0372356e+13
6.973934e+13
6.9404011e+13
6.3157569e+13
6.3420277e+13
6.4033474e+13
6.5066334e+13
6.5367977e+13
6.5647963e+13
6.6292105e+13
6.7371811e+13
6.7440108e+13
6.7735628e+13
6.8408007e+13
6.9530742e+13
6.9376291e+13
6.9686026e+13
7.038446e+13
7.1547033e+13
6.6613981e+13
6.8802937e+13
7.1798484e+13
7.5814417e+13
6.8985338e+13
7.1263438e+13
7.4376987e+13
7.854709e+13
7.1205015e+13
7.3565524e+13
7.6788362e+13
8.1101451e+13
7.3277647e+13
7.5714672e+13
7.903905e+13
8.3485048e+13
0
0
0
0
0
0
0
0
0
0
0
0
0
0
0
0
0
0
0
0
0
0
0
0
0
0
0
0
0
0
0
0
0
0
0
0
0
0
0
0
0
0
0
0
0
0
0
0
0
0
0
0
0
0
0
0
0
0
0
0
0
0
0
0
0
0
0
0
0
0
0
0
0
0
0
0
0
0
0
0
0
0
0
0
0
0
0
0
0
0
0
0
0
0
0
0
0
0
0
0
0
0
0
0
0
0
0
0
0
0
0
0
0
0
0
0
0
0
0
0
0
0
0
0
0
0
0
0
0
0
0
0
0
0
0
0
0
0
0
0
0
0
0
0
0
0
0
0
0
0
0
0
0
0
0
0
0
0
0
0
0
0
0
0
0
0
0
0
0
0
0
0
0
0
0
0
0
0
0
0
0
0
0
0
0
0
0
0
0
0
0
0
0
0
0
0
0
0
0
0
0
0
0
0
0
0
0
0
0
0
0
0
0
0
0
0
0
0
0
0
0
0
0
0
0
0
0
0
0
0
0
0
0
0
0
0
0
0
0
0
1.0252235e+14
9.509475e+13
8.9298576e+13
8.4759306e+13
1.0496044e+14
9.7355957e+13
9.1419202e+13
8.6768036e+13
1.0722684e+14
9.9458033e+13
9.3390516e+13
8.8635147e+13
1.0933026e+14
1.0140899e+14
9.5220001e+13
9.0367721e+13
8.1194072e+13
7.8390002e+13
7.6188261e+13
7.4472327e+13
8.3113774e+13
8.0239106e+13
7.7981836e+13
7.6222929e+13
8.4897887e+13
8.1957342e+13
7.9648214e+13
7.7849151e+13
8.655319e+13
8.3551258e+13
8.1193773e+13
7.9357247e+13
7.3159472e+13
7.2194718e+13
7.1546763e+13
7.1205527e+13
7.4877833e+13
7.3890324e+13
7.322835e+13
7.288154e+13
7.6473916e+13
7.5465128e+13
7.4790042e+13
7.443801e+13
7.7953886e+13
7.692524e+13
7.623792e+13
7.5881024e+13
7.1181098e+13
7.1503976e+13
7.2226598e+13
7.3426204e+13
7.286013e+13
7.3195228e+13
7.3940371e+13
7.5174464e+13
7.4419407e+13
7.4765896e+13
7.5532028e+13
7.6798248e+13
7.5865046e+13
7.6222161e+13
7.7007853e+13
7.8303983e+13
7.5209222e+13
7.7717426e+13
8.1136263e+13
8.5705886e+13
7.7006272e+13
7.9580723e+13
8.3087438e+13
8.7772027e+13
7.8675478e+13
8.1311563e+13
8.4899985e+13
8.9691404e+13
8.0223467e+13
8.2916843e+13
8.6581156e+13
9.1471737e+13
0
0
0
0
0
0
0
0
0
0
0
0
0
0
0
0
0
0
0
0
0
0
0
0
0
0
0
0
0
0
0
0
0
0
0
0
0
0
0
0
0
0
0
0
0
0
0
0
0
0
0
0
0
0
0
0
0
0
0
0
0
0
0
0
0
0
0
0
0
0
0
0
0
0
0
0
0
0
0
0
0
0
0
0
0
0
0
0
0
0
0
0
0
0
0
0
0
0
0
0
0
0
0
0
0
0
0
0
0
0
0
0
0
0
0
0
0
0
0
0
0
0
0
0
0
0
0
0
0
0
0
0
0
0
0
0
0
0
0
0
0
0
0
0
0
0
0
0
0
0
0
0
0
0
0
0
0
0
0
0
0
0
0
0
0
0
0
0
0
0
0
0
0
0
0
0
0
0
0
0
0
0
0
0
0
0
0
0
0
0
0
0
0
0
0
0
0
0
0
0
0
0
0
0
0
0
0
0
0
0
0
0
0
0
0
0
0
0
0
0
0
0
0
0
0
0
0
0
0
0
0
0
0
0
0
0
0
0
0
0
1.1127922e+14
1.032167e+14
9.691503e+13
9.1972753e+13
1.1308197e+14
1.0488878e+14
9.8482762e+13
9.3457049e+13
1.1474641e+14
1.0643256e+14
9.993008e+13
9.4827153e+13
1.1628007e+14
1.0785503e+14
1.0126354e+14
9.6089309e+13
8.8086394e+13
8.502735e+13
8.2624846e+13
8.0753427e+13
8.9504032e+13
8.6391945e+13
8.3947605e+13
8.2043745e+13
9.0812394e+13
8.7651136e+13
8.516799e+13
8.323403e+13
9.2017477e+13
8.8810735e+13
8.6291671e+13
8.4329841e+13
7.9323865e+13
7.8276723e+13
7.7578017e+13
7.7216603e+13
8.0589822e+13
7.9525487e+13
7.8816203e+13
7.8450607e+13
8.1757498e+13
8.0677212e+13
7.9958124e+13
7.9588663e+13
8.2832376e+13
8.1737322e+13
8.1009165e+13
8.0636139e+13
7.7203087e+13
7.757011e+13
7.8374012e+13
7.969796e+13
7.8439399e+13
7.8815647e+13
7.9636478e+13
8.0986258e+13
7.9579616e+13
7.9964439e+13
8.080098e+13
8.2174704e+13
8.0629109e+13
8.1021885e+13
8.1872973e+13
8.3268843e+13
8.1656703e+13
8.4403262e+13
8.8137972e+13
9.3120469e+13
8.2981423e+13
8.5777277e+13
8.9577182e+13
9.4644744e+13
8.4203595e+13
8.7045057e+13
9.0905233e+13
9.605138e+13
8.53289e+13
8.8212471e+13
9.2128253e+13
9.7346852e+13
0
0
0
0
0
0
0
0
0
0
0
0
0
0
0
0
0
0
0
0
0
0
0
0
0
0
0
0
0
0
0
0
0
0
0
0
0
0
0
0
0
0
0
0
0
0
0
0
0
0
0
0
0
0
0
0
0
0
0
0
0
0
0
0
0
0
0
0
0
0
0
0
0
0
0
0
0
0
0
0
0
0
0
0
0
0
0
0
0
0
0
0
0
0
0
0
0
0
0
0
0
0
0
0
0
0
0
0
0
0
0
0
0
0
0
0
0
0
0
0
0
0
0
0
0
0
0
0
0
0
0
0
0
0
0
0
0
0
0
0
0
0
0
0
0
0
0
0
0
0
0
0
0
0
0
0
0
0
0
0
0
0
0
0
0
0
0
0
0
0
0
0
0
0
0
0
0
0
0
0
0
0
0
0
0
0
0
0
0
0
0
0
0
0
0
0
0
0
0
0
0
0
0
0
0
0
0
0
0
0
0
0
0
0
0
0
0
0
0
0
0
0
0
0
0
0
0
0
0
0
0
0
0
0
0
0
0
0
0
0
1.1769009e+14
1.0916279e+14
1.0248938e+14
9.7249433e+13
1.1898318e+14
1.1036208e+14
1.0361343e+14
9.8313097e+13
1.2016563e+14
1.1145872e+14
1.0464119e+14
9.928552e+13
1.2124328e+14
1.1245816e+14
1.0557778e+14
1.0017156e+14
9.3124967e+13
8.9876247e+13
8.7324017e+13
8.5336443e+13
9.4140217e+13
9.0852859e+13
8.8270085e+13
8.6258796e+13
9.506824e+13
9.1745423e+13
8.9134605e+13
8.7101533e+13
9.5913705e+13
9.2558462e+13
8.9921985e+13
8.7868976e+13
8.3819639e+13
8.2710946e+13
8.1974418e+13
8.1598112e+13
8.4724173e+13
8.3602916e+13
8.2858681e+13
8.2479361e+13
8.5550543e+13
8.4417746e+13
8.3666436e+13
8.3284356e+13
8.6303004e+13
8.5159644e+13
8.4401862e+13
8.4017259e+13
8.1592958e+13
8.199309e+13
8.2857614e+13
8.427392e+13
8.2475947e+13
8.2882864e+13
8.3759763e+13
8.5194873e+13
8.3282547e+13
8.3695699e+13
8.4583961e+13
8.603632e+13
8.4016925e+13
8.4435786e+13
8.5334441e+13
8.6802567e+13
8.6362709e+13
8.9285069e+13
9.3252036e+13
9.8537282e+13
8.7310079e+13
9.0268075e+13
9.4282034e+13
9.9628431e+13
8.817574e+13
9.1166379e+13
9.5223354e+13
1.0062569e+14
8.8964104e+13
9.1984538e+13
9.6080753e+13
1.015341e+14
0
0
0
0
0
0
0
0
0
0
0
0
0
0
0
0
0
0
0
0
0
0
0
0
0
0
0
0
0
0
0
0
0
0
0
0
0
0
0
0
0
0
0
0
0
0
0
0
0
0
0
0
0
0
0
0
0
0
0
0
0
0
0
0
0
0
0
0
0
0
0
0
0
0
0
0
0
0
0
0
0
0
0
0
0
0
0
0
0
0
0
0
0
0
0
0
0
0
0
0
0
0
0
0
0
0
0
0
0
0
0
0
0
0
0
0
0
0
0
0
0
0
0
0
0
0
0
0
0
0
0
0
0
0
0
0
0
0
0
0
0
0
0
0
0
0
0
0
0
0
0
0
0
0
0
0
0
0
0
0
0
0
0
0
0
0
0
0
0
0
0
0
0
0
0
0
0
0
0
0
0
0
0
0
0
0
0
0
0
0
0
0
0
0
0
0
0
0
0
0
0
0
0
0
0
0
0
0
0
0
0
0
0
0
0
0
0
0
0
0
0
0
0
0
0
0
0
0
0
0
0
0
0
0
0
0
0
0
0
0
1.2222157e+14
1.1336541e+14
1.0642791e+14
1.0097573e+14
1.2310548e+14
1.1418513e+14
1.0719596e+14
1.0170216e+14
1.2389959e+14
1.1492155e+14
1.0788591e+14
1.0235466e+14
1.2460807e+14
1.1557854e+14
1.085014e+14
1.0293668e+14
9.6680934e+13
9.3296158e+13
9.0636301e+13
8.8565121e+13
9.7373911e+13
9.3962367e+13
9.128131e+13
8.9193647e+13
9.799628e+13
9.4560615e+13
9.1860445e+13
8.9757918e+13
9.8551354e+13
9.5094107e+13
9.237683e+13
9.0260994e+13
8.698549e+13
8.5832501e+13
8.5068821e+13
8.4681923e+13
8.7601626e+13
8.6439901e+13
8.567087e+13
8.5281891e+13
8.8154721e+13
8.6985117e+13
8.6211261e+13
8.5820407e+13
8.8647788e+13
8.7471128e+13
8.6692952e+13
8.6300418e+13
8.4682936e+13
8.5107002e+13
8.6015123e+13
8.7497599e+13
8.5284128e+13
8.5712914e+13
8.6629614e+13
8.8125089e+13
8.5823749e+13
8.6256789e+13
8.7181218e+13
8.8688396e+13
8.6304749e+13
8.6741597e+13
8.7672939e+13
8.919058e+13
8.9679254e+13
9.2726774e+13
9.6858639e+13
1.023583e+14
9.0324955e+13
9.339698e+13
9.7561082e+13
1.031026e+14
9.0904651e+13
9.3998717e+13
9.8191799e+13
1.0377093e+14
9.1421479e+13
9.453523e+13
9.8754182e+13
1.0436688e+14
0
0
0
0
0
0
0
0
0
0
0
0
0
0
0
0
0
0
0
0
0
0
0
0
0
0
0
0
0
0
0
0
0
0
0
0
0
0
0
0
0
0
0
0
0
0
0
0
0
0
0
0
0
0
0
0
0
0
0
0
0
0
0
0
0
0
0
0
0
0
0
0
0
0
0
0
0
0
0
0
0
0
0
0
0
0
0
0
0
0
0
0
0
0
0
0
0
0
0
0
0
0
0
0
0
0
0
0
0
0
0
0
0
0
0
0
0
0
0
0
0
0
0
0
0
0
0
0
0
0
0
0
0
0
0
0
0
0
0
0
0
0
0
0
0
0
0
0
0
0
0
0
0
0
0
0
0
0
0
0
0
0
0
0
0
0
0
0
0
0
0
0
0
0
0
0
0
0
0
0
0
0
0
0
0
0
0
0
0
0
0
0
0
0
0
0
0
0
0
0
0
0
0
0
0
0
0
0
0
0
0
0
0
0
0
0
0
0
0
0
0
0
0
0
0
0
0
0
0
0
0
0
0
0
0
0
0
0
0
0
1.2523465e+14
1.1615958e+14
1.090457e+14
1.0345133e+14
1.2578269e+14
1.1666779e+14
1.0952174e+14
1.039014e+14
1.2625516e+14
1.171059e+14
1.099321e+14
1.0428933e+14
1.2665463e+14
1.1747632e+14
1.1027903e+14
1.0461726e+14
9.9042118e+13
9.5565732e+13
9.2833275e+13
9.0705627e+13
9.9471243e+13
9.597807e+13
9.3232296e+13
9.1094281e+13
9.9841083e+13
9.6333399e+13
9.3576107e+13
9.1429125e+13
1.0015369e+14
9.6633702e+13
9.3866642e+13
9.1712051e+13
8.9083538e+13
8.7900613e+13
8.7118602e+13
8.6724578e+13
8.9464393e+13
8.8275969e+13
8.7490591e+13
8.709526e+13
8.979249e+13
8.8599308e+13
8.7811017e+13
8.7414554e+13
9.0069689e+13
8.8872469e+13
8.8081706e+13
8.7684283e+13
8.6729786e+13
8.7170011e+13
8.8107482e+13
8.9634394e+13
8.7101237e+13
8.7544422e+13
8.8487266e+13
9.0022303e+13
8.7421196e+13
8.7866941e+13
8.8814427e+13
9.0356481e+13
8.7691489e+13
8.8139404e+13
8.9090825e+13
9.0638823e+13
9.1878264e+13
9.5009441e+13
9.9251286e+13
1.0489367e+14
9.2277533e+13
9.5423967e+13
9.9685845e+13
1.0535419e+14
9.2621518e+13
9.5781116e+13
1.0006027e+14
1.0575101e+14
9.2912164e+13
9.6082904e+13
1.0037668e+14
1.0608634e+14
0
0
0
0
0
0
0
0
0
0
0
0
0
0
0
0
0
0
0
0
0
0
0
0
0
0
0
0
0
0
0
0
0
0
0
0
0
0
0
0
0
0
0
0
0
0
0
0
0
0
0
0
0
0
0
0
0
0
0
0
0
0
0
0
0
0
0
0
0
0
0
0
0
0
0
0
0
0
0
0
0
0
0
0
0
0
0
0
0
0
0
0
0
0
0
0
0
0
0
0
0
0
0
0
0
0
0
0
0
0
0
0
0
0
0
0
0
0
0
0
0
0
0
0
0
0
0
0
0
0
0
0
0
0
0
0
0
0
0
0
0
0
0
0
0
0
0
0
0
0
0
0
0
0
0
0
0
0
0
0
0
0
0
0
0
0
0
0
0
0
0
0
0
0
0
0
0
0
0
0
0
0
0
0
0
0
0
0
0
0
0
0
0
0
0
0
0
0
0
0
0
0
0
0
0
0
0
0
0
0
0
0
0
0
0
0
0
0
0
0
0
0
0
0
0
0
0
0
0
0
0
0
0
0
0
0
0
0
0
0
1.269833e+14
1.1778109e+14
1.1056446e+14
1.0488703e+14
1.2724302e+14
1.1802192e+14
1.1078999e+14
1.0510016e+14
1.2743525e+14
1.1820017e+14
1.109569e+14
1.0525786e+14
1.2756111e+14
1.1831689e+14
1.1106617e+14
1.0536107e+14
1.0041081e+14
9.6880673e+13
9.4105546e+13
9.194467e+13
1.0061392e+14
9.7075722e+13
9.4294193e+13
9.2128327e+13
1.0076417e+14
9.7219981e+13
9.4433684e+13
9.2264099e+13
1.0086246e+14
9.7314309e+13
9.4524853e+13
9.2352803e+13
9.0297578e+13
8.9097022e+13
8.8304217e+13
8.7906e+13
9.0477478e+13
8.9274273e+13
8.8479846e+13
8.8081001e+13
9.061045e+13
8.940527e+13
8.8609635e+13
8.8210322e+13
9.0697296e+13
8.9490807e+13
8.8694373e+13
8.8294752e+13
8.7913672e+13
8.8363378e+13
8.9318045e+13
9.0870945e+13
8.8089043e+13
8.8540172e+13
8.9497412e+13
9.1054196e+13
8.8218642e+13
8.867083e+13
8.9629986e+13
9.1189657e+13
8.8303257e+13
8.8756149e+13
8.9716573e+13
9.127815e+13
9.3151129e+13
9.6331045e+13
1.0063685e+14
1.0636209e+14
9.33398e+13
9.6526977e+13
1.0084229e+14
1.0657984e+14
9.3479284e+13
9.6671847e+13
1.0099421e+14
1.0674087e+14
9.3570428e+13
9.6766531e+13
1.0109352e+14
1.0684614e+14
0
0
0
0
0
0
0
0
0
0
0
0
0
0
0
0
0
0
0
0
0
0
0
0
0
0
0
0
0
0
0
0
0
0
0
0
0
0
0
0
0
0
0
0
0
0
0
0
0
0
0
0
0
0
0
0
0
0
0
0
0
0
0
0
0
0
0
0
0
0
0
0
0
0
0
0
0
0
0
0
0
0
0
0
0
0
0
0
0
0
0
0
0
0
0
0
0
0
0
0
0
0
0
0
0
0
0
0
0
0
0
0
0
0
0
0
0
0
0
0
0
0
0
0
0
0
0
0
0
0
0
0
0
0
0
0
0
0
0
0
0
0
0
0
0
0
0
0
0
0
0
0
0
0
0
0
0
0
0
0
0
0
0
0
0
0
0
0
0
0
0
0
0
0
0
0
0
0
0
0
0
0
0
0
0
0
0
0
0
0
0
0
0
0
0
0
0
0
0
0
0
0
0
0
0
0
0
0
0
0
0
0
0
0
0
0
0
0
0
0
0
0
0
0
0
0
0
0
0
0
0
0
0
0
0
0
0
0
0
0
1.2762137e+14
1.1837278e+14
1.1111846e+14
1.0541042e+14
1.2761645e+14
1.1836824e+14
1.1111416e+14
1.0540626e+14
1.2754643e+14
1.1830334e+14
1.1105332e+14
1.0534865e+14
1.2741103e+14
1.1817782e+14
1.109357e+14
1.0523736e+14
1.009094e+14
9.7359292e+13
9.4568272e+13
9.2394997e+13
1.0090532e+14
9.7355252e+13
9.4564252e+13
9.2390986e+13
1.0085028e+14
9.7302244e+13
9.4512847e+13
9.2340822e+13
1.0074405e+14
9.7200059e+13
9.4413851e+13
9.2244302e+13
9.0738567e+13
8.9531427e+13
8.8734597e+13
8.8334826e+13
9.0734561e+13
8.9527426e+13
8.8730603e+13
8.8330839e+13
9.0685329e+13
8.9478853e+13
8.8682438e+13
8.8282839e+13
9.0590672e+13
8.9385512e+13
8.8589908e+13
8.8190633e+13
8.8343427e+13
8.8796669e+13
8.975772e+13
9.1320234e+13
8.8339447e+13
8.8792691e+13
8.9753733e+13
9.1316219e+13
8.8291364e+13
8.874426e+13
8.9704658e+13
9.1266155e+13
8.8198987e+13
8.8651186e+13
8.9610302e+13
9.1169843e+13
9.3613805e+13
9.6811624e+13
1.0114084e+14
1.0689632e+14
9.3609734e+13
9.6807457e+13
1.0113652e+14
1.0689177e+14
9.3558268e+13
9.6754085e+13
1.0108062e+14
1.0683255e+14
9.3459203e+13
9.6651297e+13
1.0097291e+14
1.0671843e+14
0
0
0
0
0
0
0
0
0
0
0
0
0
0
0
0
0
0
0
0
0
0
0
0
0
0
0
0
0
0
0
0
0
0
0
0
0
0
0
0
0
0
0
0
0
0
0
0
0
0
0
0
0
0
0
0
0
0
0
0
0
0
0
0
0
0
0
0
0
0
0
0
0
0
0
0
0
0
0
0
0
0
0
0
0
0
0
0
0
0
0
0
0
0
0
0
0
0
0
0
0
0
0
0
0
0
0
0
0
0
0
0
0
0
0
0
0
0
0
0
0
0
0
0
0
0
0
0
0
0
0
0
0
0
0
0
0
0
0
0
0
0
0
0
0
0
0
0
0
0
0
0
0
0
0
0
0
0
0
0
0
0
0
0
0
0
0
0
0
0
0
0
0
0
0
0
0
0
0
0
0
0
0
0
0
0
0
0
0
0
0
0
0
0
0
0
0
0
0
0
0
0
0
0
0
0
0
0
0
0
0
0
0
0
0
0
0
0
0
0
0
0
0
0
0
0
0
0
0
0
0
0
0
0
0
0
0
0
0
0
1.2720965e+14
1.1799113e+14
1.1076078e+14
1.0507189e+14
1.2694133e+14
1.1774237e+14
1.1052773e+14
1.0485145e+14
1.2660477e+14
1.1743034e+14
1.102354e+14
1.0457497e+14
1.2619834e+14
1.1705351e+14
1.0988236e+14
1.0424106e+14
1.0058617e+14
9.7048226e+13
9.4266805e+13
9.2100977e+13
1.0037586e+14
9.6846007e+13
9.4070992e+13
9.1910143e+13
1.0011209e+14
9.6592402e+13
9.3825435e+13
9.1670844e+13
9.9793545e+13
9.6286144e+13
9.35289e+13
9.1381869e+13
9.0450145e+13
8.9246963e+13
8.8452576e+13
8.8053783e+13
9.0263057e+13
8.906252e+13
8.8269761e+13
8.7871613e+13
9.0028465e+13
8.8831253e+13
8.8040538e+13
8.7643198e+13
8.9745178e+13
8.8551982e+13
8.7763737e+13
8.7367373e+13
8.8061876e+13
8.8513026e+13
8.9470219e+13
9.1026834e+13
8.7879355e+13
8.8329099e+13
8.9283719e+13
9.0836421e+13
8.7650497e+13
8.8098474e+13
8.9049861e+13
9.0597649e+13
8.7374136e+13
8.7819975e+13
8.8767455e+13
9.0309306e+13
9.3312078e+13
9.6498618e+13
1.0081291e+14
1.0654889e+14
9.3116169e+13
9.6295297e+13
1.0059982e+14
1.063231e+14
9.2870497e+13
9.6040324e+13
1.0033259e+14
1.0603994e+14
9.2573818e+13
9.573241e+13
1.0000988e+14
1.0569798e+14
0
0
0
0
0
0
0
0
0
0
0
0
0
0
0
0
0
0
0
0
0
0
0
0
0
0
0
0
0
0
0
0
0
0
0
0
0
0
0
0
0
0
0
0
0
0
0
0
0
0
0
0
0
0
0
0
0
0
0
0
0
0
0
0
0
0
0
0
0
0
0
0
0
0
0
0
0
0
0
0
0
0
0
0
0
0
0
0
0
0
0
0
0
0
0
0
0
0
0
0
0
0
0
0
0
0
0
0
0
0
0
0
0
0
0
0
0
0
0
0
0
0
0
0
0
0
0
0
0
0
0
0
0
0
0
0
0
0
0
0
0
0
0
0
0
0
0
0
0
0
0
0
0
0
0
0
0
0
0
0
0
0
0
0
0
0
0
0
0
0
0
0
0
0
0
0
0
0
0
0
0
0
0
0
0
0
0
0
0
0
0
0
0
0
0
0
0
0
0
0
0
0
0
0
0
0
0
0
0
0
0
0
0
0
0
0
0
0
0
0
0
0
0
0
0
0
0
0
0
0
0
0
0
0
0
0
0
0
0
0
1.2572003e+14
1.1661004e+14
1.0946688e+14
1.0384809e+14
1.251675e+14
1.1609776e+14
1.0898691e+14
1.033941e+14
1.2453807e+14
1.1551414e+14
1.084401e+14
1.0287686e+14
1.2382866e+14
1.1485637e+14
1.0782377e+14
1.0229383e+14
9.9418648e+13
9.5925695e+13
9.3179889e+13
9.1041752e+13
9.8985525e+13
9.5509247e+13
9.2776642e+13
9.0648767e+13
9.8492026e+13
9.503472e+13
9.2317128e+13
9.0200924e+13
9.7935713e+13
9.4499751e+13
9.1799049e+13
8.969597e+13
8.9411751e+13
8.8223279e+13
8.7437938e+13
8.704272e+13
8.9026484e+13
8.7843463e+13
8.7061472e+13
8.6667576e+13
8.8587419e+13
8.7410595e+13
8.6632414e+13
8.6240021e+13
8.8092335e+13
8.692248e+13
8.6148583e+13
8.5757879e+13
8.7048852e+13
8.7492176e+13
8.8435057e+13
8.9969922e+13
8.6672978e+13
8.7113398e+13
8.8050971e+13
8.9577769e+13
8.6244592e+13
8.6681707e+13
8.7613239e+13
8.9130855e+13
8.5761516e+13
8.6194913e+13
8.7119645e+13
8.8626925e+13
9.2224625e+13
9.5369996e+13
9.9630046e+13
1.0529551e+14
9.1821146e+13
9.495125e+13
9.9191184e+13
1.0483049e+14
9.1361338e+13
9.4474058e+13
9.8691084e+13
1.043006e+14
9.0842888e+13
9.3936027e+13
9.8127242e+13
1.0370319e+14
0
0
0
0
0
0
0
0
0
0
0
0
0
0
0
0
0
0
0
0
0
0
0
0
0
0
0
0
0
0
0
0
0
0
0
0
0
0
0
0
0
0
0
0
0
0
0
0
0
0
0
0
0
0
0
0
0
0
0
0
0
0
0
0
0
0
0
0
0
0
0
0
0
0
0
0
0
0
0
0
0
0
0
0
0
0
0
0
0
0
0
0
0
0
0
0
0
0
0
0
0
0
0
0
0
0
0
0
0
0
0
0
0
0
0
0
0
0
0
0
0
0
0
0
0
0
0
0
0
0
0
0
0
0
0
0
0
0
0
0
0
0
0
0
0
0
0
0
0
0
0
0
0
0
0
0
0
0
0
0
0
0
0
0
0
0
0
0
0
0
0
0
0
0
0
0
0
0
0
0
0
0
0
0
0
0
0
0
0
0
0
0
0
0
0
0
0
0
0
0
0
0
0
0
0
0
0
0
0
0
0
0
0
0
0
0
0
0
0
0
0
0
0
0
0
0
0
0
0
0
0
0
0
0
0
0
0
0
0
0
1.2303587e+14
1.1412126e+14
1.0713494e+14
1.0164217e+14
1.2215591e+14
1.1330531e+14
1.0637031e+14
1.0091873e+14
1.2118466e+14
1.1240468e+14
1.0552627e+14
1.0012008e+14
1.2011759e+14
1.1141518e+14
1.0459887e+14
9.9242469e+13
9.7313861e+13
9.3901703e+13
9.121983e+13
8.9131381e+13
9.662345e+13
9.3237653e+13
9.0576623e+13
8.8504366e+13
9.5861171e+13
9.2504391e+13
8.9866298e+13
8.7811853e+13
9.5023421e+13
9.169843e+13
8.9085452e+13
8.7050505e+13
8.7538748e+13
8.6376659e+13
8.5607535e+13
8.5218715e+13
8.6923905e+13
8.5770409e+13
8.5006568e+13
8.4619832e+13
8.6244781e+13
8.5100736e+13
8.4342705e+13
8.3958263e+13
8.5498086e+13
8.4364383e+13
8.3612711e+13
8.3230777e+13
8.5221308e+13
8.5650558e+13
8.6567706e+13
8.806345e+13
8.462127e+13
8.5045926e+13
8.5954671e+13
8.7437633e+13
8.3958429e+13
8.437803e+13
8.5277521e+13
8.6746399e+13
8.3229551e+13
8.3643612e+13
8.4532961e+13
8.5986398e+13
9.0263204e+13
9.3334477e+13
9.7496861e+13
1.0303529e+14
8.9619418e+13
9.266644e+13
9.679684e+13
1.0229364e+14
8.8908378e+13
9.192866e+13
9.6023774e+13
1.0147463e+14
8.8126651e+13
9.1117585e+13
9.5173955e+13
1.0057434e+14
0
0
0
0
0
0
0
0
0
0
0
0
0
0
0
0
0
0
0
0
0
0
0
0
0
0
0
0
0
0
0
0
0
0
0
0
0
0
0
0
0
0
0
0
0
0
0
0
0
0
0
0
0
0
0
0
0
0
0
0
0
0
0
0
0
0
0
0
0
0
0
0
0
0
0
0
0
0
0
0
0
0
0
0
0
0
0
0
0
0
0
0
0
0
0
0
0
0
0
0
0
0
0
0
0
0
0
0
0
0
0
0
0
0
0
0
0
0
0
0
0
0
0
0
0
0
0
0
0
0
0
0
0
0
0
0
0
0
0
0
0
0
0
0
0
0
0
0
0
0
0
0
0
0
0
0
0
0
0
0
0
0
0
0
0
0
0
0
0
0
0
0
0
0
0
0
0
0
0
0
0
0
0
0
0
0
0
0
0
0
0
0
0
0
0
0
0
0
0
0
0
0
0
0
0
0
0
0
0
0
0
0
0
0
0
0
0
0
0
0
0
0
0
0
0
0
0
0
0
0
0
0
0
0
0
0
0
0
0
0
1.1894986e+14
1.103323e+14
1.0358387e+14
9.8281842e+13
1.1767626e+14
1.0915119e+14
1.0247671e+14
9.7233859e+13
1.1629123e+14
1.0786671e+14
1.0127253e+14
9.6093885e+13
1.1478891e+14
1.0647339e+14
9.9966179e+13
9.4857016e+13
9.4106306e+13
9.081599e+13
8.8230396e+13
8.62167e+13
9.3105645e+13
8.9853018e+13
8.7297171e+13
8.5306553e+13
9.2016977e+13
8.8805182e+13
8.6281545e+13
8.4315903e+13
9.0835572e+13
8.7667888e+13
8.5179024e+13
8.3240333e+13
8.4680249e+13
8.3557816e+13
8.2813072e+13
8.2433872e+13
8.3787436e+13
8.2677236e+13
8.1940012e+13
8.1563778e+13
8.2815542e+13
8.1718575e+13
8.0989486e+13
8.0616459e+13
8.1760204e+13
8.0677507e+13
7.9957187e+13
7.9587612e+13
8.2431126e+13
8.2839144e+13
8.3717424e+13
8.5153998e+13
8.155938e+13
8.1960826e+13
8.2827066e+13
8.424529e+13
8.0610265e+13
8.1004586e+13
8.1857768e+13
8.3256081e+13
7.957947e+13
7.9966085e+13
8.080514e+13
8.2181903e+13
8.7270512e+13
9.0229365e+13
9.4243362e+13
9.9588524e+13
8.6335957e+13
8.9259859e+13
9.3227669e+13
9.8512612e+13
8.5318687e+13
8.8204624e+13
9.2122236e+13
9.7341694e+13
8.4214124e+13
8.7058926e+13
9.0922117e+13
9.6070545e+13
0
0
0
0
0
0
0
0
0
0
0
0
0
0
0
0
0
0
0
0
0
0
0
0
0
0
0
0
0
0
0
0
0
0
0
0
0
0
0
0
0
0
0
0
0
0
0
0
0
0
0
0
0
0
0
0
0
0
0
0
0
0
0
0
0
0
0
0
0
0
0
0
0
0
0
0
0
0
0
0
0
0
0
0
0
0
0
0
0
0
0
0
0
0
0
0
0
0
0
0
0
0
0
0
0
0
0
0
0
0
0
0
0
0
0
0
0
0
0
0
0
0
0
0
0
0
0
0
0
0
0
0
0
0
0
0
0
0
0
0
0
0
0
0
0
0
0
0
0
0
0
0
0
0
0
0
0
0
0
0
0
0
0
0
0
0
0
0
0
0
0
0
0
0
0
0
0
0
0
0
0
0
0
0
0
0
0
0
0
0
0
0
0
0
0
0
0
0
0
0
0
0
0
0
0
0
0
0
0
0
0
0
0
0
0
0
0
0
0
0
0
0
0
0
0
0
0
0
0
0
0
0
0
0
0
0
0
0
0
0
1.1316315e+14
1.0496552e+14
9.8552265e+13
9.3518089e+13
1.1140754e+14
1.0333712e+14
9.7025146e+13
9.2071714e+13
1.0951545e+14
1.0158204e+14
9.5379001e+13
9.0512316e+13
1.0748016e+14
9.9693985e+13
9.3607869e+13
8.8834174e+13
8.9556453e+13
8.6436293e+13
8.3984868e+13
8.2075177e+13
8.8174414e+13
8.5105328e+13
8.2694107e+13
8.0815536e+13
8.6684057e+13
8.3669727e+13
8.1301569e+13
7.9456305e+13
8.5079837e+13
8.2124068e+13
7.9801917e+13
7.7992202e+13
8.0616807e+13
7.9549454e+13
7.8838557e+13
7.8472682e+13
7.9380503e+13
7.8329596e+13
7.762879e+13
7.7266864e+13
7.8046231e+13
7.7012897e+13
7.6322859e+13
7.5965119e+13
7.660874e+13
7.5594122e+13
7.4915525e+13
7.4562192e+13
7.8462426e+13
7.8840717e+13
7.9664522e+13
8.1018012e+13
7.7254308e+13
7.7623623e+13
7.8430991e+13
7.9759393e+13
7.5950052e+13
7.6309691e+13
7.7099364e+13
7.8400762e+13
7.4544368e+13
7.4893574e+13
7.5664214e+13
7.6936579e+13
8.3017401e+13
8.581773e+13
8.9622053e+13
9.4693606e+13
8.1723373e+13
8.4475715e+13
8.821648e+13
9.320499e+13
8.0326617e+13
8.3027265e+13
8.6699527e+13
9.1598486e+13
7.8821437e+13
8.1466475e+13
8.5065014e+13
8.9867549e+13
0
0
0
0
0
0
0
0
0
0
0
0
0
0
0
0
0
0
0
0
0
0
0
0
0
0
0
0
0
0
0
0
0
0
0
0
0
0
0
0
0
0
0
0
0
0
0
0
0
0
0
0
0
0
0
0
0
0
0
0
0
0
0
0
0
0
0
0
0
0
0
0
0
0
0
0
0
0
0
0
0
0
0
0
0
0
0
0
0
0
0
0
0
0
0
0
0
0
0
0
0
0
0
0
0
0
0
0
0
0
0
0
0
0
0
0
0
0
0
0
0
0
0
0
0
0
0
0
0
0
0
0
0
0
0
0
0
0
0
0
0
0
0
0
0
0
0
0
0
0
0
0
0
0
0
0
0
0
0
0
0
0
0
0
0
0
0
0
0
0
0
0
0
0
0
0
0
0
0
0
0
0
0
0
0
0
0
0
0
0
0
0
0
0
0
0
0
0
0
0
0
0
0
0
0
0
0
0
0
0
0
0
0
0
0
0
0
0
0
0
0
0
0
0
0
0
0
0
0
0
0
0
0
0
0
0
0
0
0
0
1.0529487e+14
9.7666617e+13
9.1705734e+13
8.7031503e+13
1.029529e+14
9.5493669e+13
8.9666626e+13
8.5098532e+13
1.004478e+14
9.3169082e+13
8.7484745e+13
8.3029631e+13
9.7773593e+13
9.0687205e+13
8.5154646e+13
8.0819467e+13
8.3356126e+13
8.0462829e+13
7.8189697e+13
7.6417814e+13
8.1507289e+13
7.8680458e+13
7.6459402e+13
7.4727647e+13
7.9527795e+13
7.6771471e+13
7.4605558e+13
7.2916211e+13
7.7412353e+13
7.4730574e+13
7.262283e+13
7.0978103e+13
7.5062635e+13
7.4067873e+13
7.3401373e+13
7.3052634e+13
7.3402417e+13
7.2428628e+13
7.1774842e+13
7.1430826e+13
7.1622554e+13
7.0670797e+13
7.0030266e+13
6.9691017e+13
6.9717555e+13
6.8788783e+13
6.8161932e+13
6.7827357e+13
7.3031754e+13
7.3369699e+13
7.4119869e+13
7.536104e+13
7.140652e+13
7.1732283e+13
7.2460428e+13
7.3668092e+13
6.9662807e+13
6.9975342e+13
7.0679756e+13
7.1851418e+13
6.7794618e+13
6.8092707e+13
6.8771489e+13
6.9904424e+13
7.7201857e+13
7.9787145e+13
8.330644e+13
8.8005287e+13
7.546163e+13
7.7982775e+13
8.1416979e+13
8.6004455e+13
7.3594208e+13
7.604653e+13
7.9389437e+13
8.3857395e+13
7.1592727e+13
7.3971213e+13
7.7216202e+13
8.1555981e+13
0
0
0
0
0
0
0
0
0
0
0
0
0
0
0
0
0
0
0
0
0
0
0
0
0
0
0
0
0
0
0
0
0
0
0
0
0
0
0
0
0
0
0
0
0
0
0
0
0
0
0
0
0
0
0
0
0
0
0
0
0
0
0
0
0
0
0
0
0
0
0
0
0
0
0
0
0
0
0
0
0
0
0
0
0
0
0
0
0
0
0
0
0
0
0
0
0
0
0
0
0
0
0
0
0
0
0
0
0
0
0
0
0
0
0
0
0
0
0
0
0
0
0
0
0
0
0
0
0
0
0
0
0
0
0
0
0
0
0
0
0
0
0
0
0
0
0
0
0
0
0
0
0
0
0
0
0
0
0
0
0
0
0
0
0
0
0
0
0
0
0
0
0
0
0
0
0
0
0
0
0
0
0
0
0
0
0
0
0
0
0
0
0
0
0
0
0
0
0
0
0
0
0
0
0
0
0
0
0
0
0
0
0
0
0
0
0
0
0
0
0
0
0
0
0
0
0
0
0
0
0
0
0
0
0
0
0
0
0
0
9.4925039e+13
8.8043045e+13
8.267146e+13
7.8463209e+13
9.1898033e+13
8.5232611e+13
8.0031206e+13
7.5956807e+13
8.8690061e+13
8.2253346e+13
7.7231188e+13
7.3297354e+13
8.5300854e+13
7.9104709e+13
7.4270526e+13
7.0483575e+13
7.5156107e+13
7.2552836e+13
7.0506176e+13
6.8908142e+13
7.2754877e+13
7.0233903e+13
6.8251036e+13
6.6701537e+13
7.0205493e+13
6.7770298e+13
6.5853594e+13
6.4354107e+13
6.7506239e+13
6.5159825e+13
6.3311139e+13
6.1862595e+13
6.7682084e+13
6.6777077e+13
6.6164141e+13
6.5833946e+13
6.5511093e+13
6.4630362e+13
6.4031291e+13
6.3704884e+13
6.3200016e+13
6.2343665e+13
6.1757986e+13
6.1434334e+13
6.0745024e+13
5.991256e+13
5.9339179e+13
5.9016602e+13
6.5795833e+13
6.6078024e+13
6.6729011e+13
6.7820198e+13
6.3660239e+13
6.3924743e+13
6.4545412e+13
6.559144e+13
6.1381539e+13
6.1626089e+13
6.2213414e+13
6.321033e+13
5.8953368e+13
5.9174999e+13
5.9725222e+13
6.0668307e+13
6.9449932e+13
7.1749171e+13
7.4889145e+13
7.9091499e+13
6.7158088e+13
6.9372171e+13
7.2399452e+13
7.6454447e+13
6.470879e+13
6.6831161e+13
6.9737344e+13
7.3634211e+13
6.2092665e+13
6.4115895e+13
6.6891619e+13
7.0618519e+13
0
0
0
0
0
0
0
0
0
0
0
0
0
0
0
0
0
0
0
0
0
0
0
0
0
0
0
0
0
0
0
0
0
0
0
0
0
0
0
0
0
0
0
0
0
0
0
0
0
0
0
0
0
0
0
0
0
0
0
0
0
0
0
0
0
0
0
0
0
0
0
0
0
0
0
0
0
0
0
0
0
0
0
0
0
0
0
0
0
0
0
0
0
0
0
0
0
0
0
0
0
0
0
0
0
0
0
0
0
0
0
0
0
0
0
0
0
0
0
0
0
0
0
0
0
0
0
0
0
0
0
0
0
0
0
0
0
0
0
0
0
0
0
0
0
0
0
0
0
0
0
0
0
0
0
0
0
0
0
0
0
0
0
0
0
0
0
0
0