/*--------------------------------*- C++ -*----------------------------------*\
| =========                 |                                                 |
| \\      /  F ield         | OpenFOAM: The Open Source CFD Toolbox           |
|  \\    /   O peration     | Version:  1.4.1-dev                             |
|   \\  /    A nd           | Web:      http://www.openfoam.org               |
|    \\/     M anipulation  |                                                 |
\*---------------------------------------------------------------------------*/

FoamFile
{
    version 2.0;
    format ascii;

    root "/home/cliffoi/OpenFOAM/cliffoi-1.4.1-dev/run/diffusionFoam";
    case "oecd_simplified_2G";
    instance "0";
    local "";

    class volScalarField;
    object dn_lamC6;
}

// * * * * * * * * * * * * * * * * * * * * * * * * * * * * * * * * * * * * * //

dimensions      [0 -3 -1 0 0 0 0];

internalField   nonuniform List<scalar> 
9280
(
0
0
0
0
0
0
0
0
0
0
0
0
0
0
0
0
0
0
0
0
0
0
0
0
0
0
0
0
0
0
0
0
0
0
0
0
0
0
0
0
0
0
0
0
0
0
0
0
0
0
0
0
0
0
0
0
0
0
0
0
0
0
0
0
0
0
0
0
0
0
0
0
0
0
0
0
0
0
0
0
0
0
0
0
0
0
0
0
0
0
0
0
0
0
0
0
0
0
0
0
0
0
0
0
0
0
0
0
0
0
0
0
0
0
0
0
0
0
0
0
0
0
0
0
0
0
0
0
0
0
0
0
0
0
0
0
0
0
0
0
0
0
0
0
0
0
0
0
0
0
0
0
0
0
0
0
0
0
0
0
0
0
0
0
0
0
0
0
0
0
0
0
0
0
0
0
0
0
0
0
0
0
0
0
0
0
0
0
0
0
0
0
0
0
0
0
0
0
0
0
0
0
0
0
0
0
0
0
0
0
0
0
0
0
0
0
0
0
0
0
0
0
0
0
0
0
0
0
0
0
0
0
0
0
0
0
0
0
0
0
0
0
0
0
0
0
0
0
0
0
0
0
0
0
0
0
0
0
0
0
0
0
0
0
0
0
0
0
0
0
0
0
0
0
0
0
0
0
0
0
0
0
0
0
0
0
0
0
0
0
0
0
0
0
0
0
0
0
0
0
0
0
0
0
0
0
0
0
0
0
0
0
0
0
0
0
0
0
0
0
0
0
0
0
0
0
0
0
0
0
0
0
0
0
0
0
0
0
0
0
0
0
0
0
0
0
0
0
0
0
0
0
0
0
0
0
0
0
0
0
0
0
0
0
0
0
0
0
0
0
0
0
0
0
0
0
0
0
0
0
0
0
0
0
0
0
0
0
0
0
0
0
0
0
0
0
0
0
0
0
0
0
0
0
0
0
0
0
0
0
0
0
0
0
0
0
0
0
0
0
0
0
0
0
0
0
0
0
0
0
0
0
0
0
0
0
0
0
0
0
0
0
0
0
0
0
0
0
0
0
0
0
0
0
0
0
0
0
0
0
0
0
0
0
0
0
0
0
0
0
0
0
0
0
0
0
0
0
0
0
0
0
0
0
0
0
0
0
0
0
0
0
0
0
0
0
0
0
0
0
0
0
0
0
0
0
0
0
0
0
0
0
0
0
0
0
0
0
0
0
0
0
0
0
0
0
0
0
0
0
0
0
0
0
0
0
0
0
0
0
0
0
0
0
0
0
0
0
0
0
0
0
0
0
0
0
0
0
0
0
0
0
0
0
0
0
0
0
0
0
0
0
0
0
0
0
0
0
0
0
0
0
0
0
0
0
0
0
0
0
0
0
0
0
0
0
0
0
0
0
0
0
0
0
0
0
0
0
0
0
0
0
0
0
0
0
0
0
0
0
0
0
0
0
0
0
0
0
0
0
0
0
0
0
0
0
0
0
0
0
0
0
0
0
0
0
0
0
0
0
0
0
0
0
0
0
0
0
0
0
0
0
0
0
0
0
0
0
0
0
0
0
0
0
0
0
0
0
0
0
0
0
0
0
0
0
0
0
0
0
0
0
0
0
0
0
0
0
0
0
0
0
0
0
0
0
0
0
0
0
0
0
0
0
0
0
0
0
0
0
0
0
0
0
0
0
0
0
0
0
0
0
0
0
0
0
0
0
0
0
0
0
0
0
0
0
0
0
0
0
0
0
0
0
0
0
0
0
0
0
0
0
0
0
0
0
0
0
0
0
0
0
0
0
0
0
0
0
0
0
0
0
0
0
0
0
0
0
0
0
0
0
0
0
0
0
0
0
0
0
0
0
0
0
0
0
0
0
0
0
0
0
0
0
0
0
0
0
0
0
0
0
0
0
0
0
0
0
0
0
0
0
0
0
0
0
0
0
0
0
0
0
0
0
0
0
0
0
0
0
0
0
0
0
0
0
0
0
0
0
0
0
0
0
0
0
0
0
0
0
0
0
0
0
0
0
0
0
0
0
0
0
0
0
0
0
0
0
0
0
0
0
0
0
0
0
0
0
0
0
0
0
0
0
0
0
0
0
0
0
0
0
0
0
0
0
0
0
0
0
0
0
0
0
0
0
0
0
0
0
0
0
0
0
0
0
0
0
0
0
0
0
0
0
0
0
0
0
0
0
0
0
0
0
0
0
0
0
0
0
0
0
0
0
0
0
0
0
0
0
0
0
0
0
0
0
0
0
0
0
0
0
0
0
0
0
0
0
0
0
0
0
0
0
0
0
0
0
0
0
0
0
0
0
0
0
0
0
0
0
0
0
0
0
0
0
0
0
0
0
0
0
0
0
0
0
0
0
0
0
0
0
0
0
0
0
0
0
0
0
0
0
0
0
0
0
0
0
0
0
0
0
0
0
0
0
9.296455e+13
8.8866255e+13
8.5782233e+13
8.3411779e+13
9.4980935e+13
8.9366941e+13
8.5087111e+13
8.1791783e+13
9.965164e+13
9.3051542e+13
8.7971945e+13
8.4037895e+13
1.0529026e+14
9.7969574e+13
9.2306694e+13
8.7904225e+13
8.1541736e+13
8.0020124e+13
7.8738812e+13
7.7621897e+13
7.9221964e+13
7.7186929e+13
7.5547628e+13
7.420455e+13
8.0967794e+13
7.8551389e+13
7.6633369e+13
7.5101208e+13
8.4462776e+13
8.1757903e+13
7.9623019e+13
7.7936783e+13
7.6617849e+13
7.569426e+13
7.4834463e+13
7.4035603e+13
7.3089009e+13
7.2157047e+13
7.1385393e+13
7.076909e+13
7.3876295e+13
7.2907629e+13
7.216756e+13
7.1649223e+13
7.6613896e+13
7.5598547e+13
7.4859976e+13
7.4389764e+13
7.3307929e+13
7.2675217e+13
7.217639e+13
7.1868568e+13
7.0320553e+13
7.006994e+13
7.0066836e+13
7.0383313e+13
7.136543e+13
7.1348895e+13
7.1653752e+13
7.235842e+13
7.4200634e+13
7.4326617e+13
7.4824556e+13
7.5776997e+13
7.183199e+13
7.2177661e+13
7.3059136e+13
7.4691011e+13
7.111858e+13
7.2405428e+13
7.441877e+13
7.7386452e+13
7.3569921e+13
7.542987e+13
7.8122391e+13
8.1884361e+13
7.7296613e+13
7.95324e+13
8.2677999e+13
8.6982658e+13
0
0
0
0
0
0
0
0
0
0
0
0
0
0
0
0
0
0
0
0
0
0
0
0
0
0
0
0
0
0
0
0
0
0
0
0
0
0
0
0
0
0
0
0
0
0
0
0
0
0
0
0
0
0
0
0
0
0
0
0
0
0
0
0
0
0
0
0
0
0
0
0
0
0
0
0
0
0
0
0
0
0
0
0
0
0
0
0
0
0
0
0
0
0
0
0
0
0
0
0
0
0
0
0
0
0
0
0
0
0
0
0
0
0
0
0
0
0
0
0
0
0
0
0
0
0
0
0
0
0
0
0
0
0
0
0
0
0
0
0
0
0
0
0
0
0
0
0
0
0
0
0
0
0
0
0
0
0
0
0
0
0
0
0
0
0
0
0
0
0
0
0
0
0
0
0
0
0
0
0
0
0
0
0
0
0
0
0
0
0
0
0
0
0
0
0
0
0
0
0
0
0
0
0
0
0
0
0
0
0
0
0
0
0
0
0
0
0
0
0
0
0
0
0
0
0
0
0
0
0
0
0
0
0
0
0
0
0
0
0
1.1116903e+14
1.0326937e+14
9.7141879e+13
9.2367757e+13
1.1696631e+14
1.0857046e+14
1.0204771e+14
9.6958937e+13
1.2254133e+14
1.1370318e+14
1.0682963e+14
1.0146251e+14
1.2783565e+14
1.1859434e+14
1.1140171e+14
1.0578179e+14
8.8631264e+13
8.5695422e+13
8.3384044e+13
8.1568503e+13
9.2973028e+13
8.9841336e+13
8.7378858e+13
8.5450373e+13
9.7256248e+13
9.3951244e+13
9.1354257e+13
8.9323933e+13
1.0137546e+14
9.7912896e+13
9.5193147e+13
9.3069126e+13
8.0158096e+13
7.9093183e+13
7.8340546e+13
7.7890554e+13
8.3960359e+13
8.2845822e+13
8.2071445e+13
8.1626633e+13
8.7760302e+13
8.659731e+13
8.5797764e+13
8.5350271e+13
9.1436718e+13
9.0227034e+13
8.9401171e+13
8.8947045e+13
7.7755899e+13
7.7971772e+13
7.859743e+13
7.9719244e+13
8.1524202e+13
8.1800578e+13
8.2517463e+13
8.3765051e+13
8.5267882e+13
8.5588315e+13
8.6375725e+13
8.7724085e+13
8.8877995e+13
8.9233037e+13
9.0078718e+13
9.1512666e+13
8.1455362e+13
8.3962284e+13
8.7443737e+13
9.2162395e+13
8.5666971e+13
8.8387243e+13
9.2139673e+13
9.7200295e+13
8.9762393e+13
9.2661983e+13
9.6646417e+13
1.0200457e+14
9.3669029e+13
9.6726129e+13
1.009168e+14
1.0654209e+14
0
0
0
0
0
0
0
0
0
0
0
0
0
0
0
0
0
0
0
0
0
0
0
0
0
0
0
0
0
0
0
0
0
0
0
0
0
0
0
0
0
0
0
0
0
0
0
0
0
0
0
0
0
0
0
0
0
0
0
0
0
0
0
0
0
0
0
0
0
0
0
0
0
0
0
0
0
0
0
0
0
0
0
0
0
0
0
0
0
0
0
0
0
0
0
0
0
0
0
0
0
0
0
0
0
0
0
0
0
0
0
0
0
0
0
0
0
0
0
0
0
0
0
0
0
0
0
0
0
0
0
0
0
0
0
0
0
0
0
0
0
0
0
0
0
0
0
0
0
0
0
0
0
0
0
0
0
0
0
0
0
0
0
0
0
0
0
0
0
0
0
0
0
0
0
0
0
0
0
0
0
0
0
0
0
0
0
0
0
0
0
0
0
0
0
0
0
0
0
0
0
0
0
0
0
0
0
0
0
0
0
0
0
0
0
0
0
0
0
0
0
0
0
0
0
0
0
0
0
0
0
0
0
0
0
0
0
0
0
0
1.3282884e+14
1.2321568e+14
1.1572892e+14
1.09876e+14
1.3751828e+14
1.2756014e+14
1.198004e+14
1.1373113e+14
1.419098e+14
1.3163077e+14
1.236169e+14
1.1734606e+14
1.4601324e+14
1.3543551e+14
1.2718483e+14
1.2072594e+14
1.0528523e+14
1.0167723e+14
9.8843854e+13
9.6632663e+13
1.0896897e+14
1.0522566e+14
1.0228634e+14
9.9993618e+13
1.1242404e+14
1.0855437e+14
1.0551599e+14
1.0314684e+14
1.1565464e+14
1.1166683e+14
1.085357e+14
1.0609491e+14
9.4935679e+13
9.3681377e+13
9.2829277e+13
9.2366674e+13
9.8235902e+13
9.6939216e+13
9.6061615e+13
9.5589831e+13
1.0133202e+14
9.999525e+13
9.9093233e+13
9.8612175e+13
1.0422644e+14
1.028519e+14
1.0192673e+14
1.0143663e+14
9.2307216e+13
9.2691174e+13
9.3587385e+13
9.509695e+13
9.5537812e+13
9.5947023e+13
9.6888461e+13
9.8466493e+13
9.8566312e+13
9.8998226e+13
9.9980933e+13
1.0162185e+14
1.0139612e+14
1.0184881e+14
1.028696e+14
1.0456874e+14
9.7358896e+13
1.0055814e+14
1.0493625e+14
1.1080569e+14
1.0082473e+14
1.0415426e+14
1.0870483e+14
1.1479959e+14
1.0406887e+14
1.0751884e+14
1.1222914e+14
1.1853289e+14
1.070981e+14
1.106599e+14
1.1551861e+14
1.2201661e+14
0
0
0
0
0
0
0
0
0
0
0
0
0
0
0
0
0
0
0
0
0
0
0
0
0
0
0
0
0
0
0
0
0
0
0
0
0
0
0
0
0
0
0
0
0
0
0
0
0
0
0
0
0
0
0
0
0
0
0
0
0
0
0
0
0
0
0
0
0
0
0
0
0
0
0
0
0
0
0
0
0
0
0
0
0
0
0
0
0
0
0
0
0
0
0
0
0
0
0
0
0
0
0
0
0
0
0
0
0
0
0
0
0
0
0
0
0
0
0
0
0
0
0
0
0
0
0
0
0
0
0
0
0
0
0
0
0
0
0
0
0
0
0
0
0
0
0
0
0
0
0
0
0
0
0
0
0
0
0
0
0
0
0
0
0
0
0
0
0
0
0
0
0
0
0
0
0
0
0
0
0
0
0
0
0
0
0
0
0
0
0
0
0
0
0
0
0
0
0
0
0
0
0
0
0
0
0
0
0
0
0
0
0
0
0
0
0
0
0
0
0
0
0
0
0
0
0
0
0
0
0
0
0
0
0
0
0
0
0
0
1.4984035e+14
1.3898464e+14
1.305133e+14
1.2387899e+14
1.5340372e+14
1.4228948e+14
1.3361268e+14
1.2681482e+14
1.5671615e+14
1.4536174e+14
1.3649383e+14
1.2954368e+14
1.5979038e+14
1.4821314e+14
1.3916769e+14
1.320759e+14
1.1866826e+14
1.1457e+14
1.1135207e+14
1.0884417e+14
1.2147398e+14
1.1727254e+14
1.1397345e+14
1.1140274e+14
1.2408153e+14
1.1978381e+14
1.1640893e+14
1.1377953e+14
1.2650082e+14
1.2211338e+14
1.1866782e+14
1.1598367e+14
1.0692538e+14
1.0551536e+14
1.0456835e+14
1.0406962e+14
1.0943683e+14
1.0799355e+14
1.0702605e+14
1.0651917e+14
1.1176957e+14
1.1029519e+14
1.0930852e+14
1.0879401e+14
1.139326e+14
1.124292e+14
1.1142465e+14
1.1090303e+14
1.0403391e+14
1.0450581e+14
1.0556195e+14
1.0731522e+14
1.0648788e+14
1.0697764e+14
1.080667e+14
1.0987037e+14
1.0876683e+14
1.0927323e+14
1.1039296e+14
1.1224359e+14
1.1087968e+14
1.1140162e+14
1.1254994e+14
1.1444428e+14
1.0992117e+14
1.1358701e+14
1.1858377e+14
1.2526245e+14
1.1254763e+14
1.1631029e+14
1.2143549e+14
1.2828219e+14
1.1498724e+14
1.1883998e+14
1.2408459e+14
1.3108744e+14
1.1724968e+14
1.2118616e+14
1.2654169e+14
1.3368946e+14
0
0
0
0
0
0
0
0
0
0
0
0
0
0
0
0
0
0
0
0
0
0
0
0
0
0
0
0
0
0
0
0
0
0
0
0
0
0
0
0
0
0
0
0
0
0
0
0
0
0
0
0
0
0
0
0
0
0
0
0
0
0
0
0
0
0
0
0
0
0
0
0
0
0
0
0
0
0
0
0
0
0
0
0
0
0
0
0
0
0
0
0
0
0
0
0
0
0
0
0
0
0
0
0
0
0
0
0
0
0
0
0
0
0
0
0
0
0
0
0
0
0
0
0
0
0
0
0
0
0
0
0
0
0
0
0
0
0
0
0
0
0
0
0
0
0
0
0
0
0
0
0
0
0
0
0
0
0
0
0
0
0
0
0
0
0
0
0
0
0
0
0
0
0
0
0
0
0
0
0
0
0
0
0
0
0
0
0
0
0
0
0
0
0
0
0
0
0
0
0
0
0
0
0
0
0
0
0
0
0
0
0
0
0
0
0
0
0
0
0
0
0
0
0
0
0
0
0
0
0
0
0
0
0
0
0
0
0
0
0
1.6263886e+14
1.5085517e+14
1.4164504e+14
1.3442172e+14
1.6527364e+14
1.5329898e+14
1.4393634e+14
1.3659107e+14
1.6770629e+14
1.5555528e+14
1.4605165e+14
1.3859353e+14
1.699478e+14
1.5763427e+14
1.4800056e+14
1.4043822e+14
1.2874165e+14
1.2427074e+14
1.2075939e+14
1.1802424e+14
1.3081359e+14
1.2626515e+14
1.2269265e+14
1.1991009e+14
1.3272581e+14
1.2810551e+14
1.2447629e+14
1.2164974e+14
1.3448708e+14
1.298003e+14
1.261186e+14
1.2325131e+14
1.1593488e+14
1.1440444e+14
1.1338325e+14
1.1285504e+14
1.1778512e+14
1.1622956e+14
1.1519291e+14
1.1465858e+14
1.1949173e+14
1.1791285e+14
1.1686187e+14
1.1632189e+14
1.210627e+14
1.1946224e+14
1.1839801e+14
1.1785282e+14
1.1283528e+14
1.133717e+14
1.1454663e+14
1.1648163e+14
1.146422e+14
1.151921e+14
1.1639178e+14
1.1836453e+14
1.1630867e+14
1.168711e+14
1.1809374e+14
1.2010149e+14
1.1784254e+14
1.184166e+14
1.196605e+14
1.2170062e+14
1.1934441e+14
1.2335861e+14
1.2881704e+14
1.3609915e+14
1.2128054e+14
1.2536679e+14
1.309205e+14
1.3832693e+14
1.2306679e+14
1.272197e+14
1.3286149e+14
1.4038279e+14
1.2471147e+14
1.2892592e+14
1.3464899e+14
1.4227617e+14
0
0
0
0
0
0
0
0
0
0
0
0
0
0
0
0
0
0
0
0
0
0
0
0
0
0
0
0
0
0
0
0
0
0
0
0
0
0
0
0
0
0
0
0
0
0
0
0
0
0
0
0
0
0
0
0
0
0
0
0
0
0
0
0
0
0
0
0
0
0
0
0
0
0
0
0
0
0
0
0
0
0
0
0
0
0
0
0
0
0
0
0
0
0
0
0
0
0
0
0
0
0
0
0
0
0
0
0
0
0
0
0
0
0
0
0
0
0
0
0
0
0
0
0
0
0
0
0
0
0
0
0
0
0
0
0
0
0
0
0
0
0
0
0
0
0
0
0
0
0
0
0
0
0
0
0
0
0
0
0
0
0
0
0
0
0
0
0
0
0
0
0
0
0
0
0
0
0
0
0
0
0
0
0
0
0
0
0
0
0
0
0
0
0
0
0
0
0
0
0
0
0
0
0
0
0
0
0
0
0
0
0
0
0
0
0
0
0
0
0
0
0
0
0
0
0
0
0
0
0
0
0
0
0
0
0
0
0
0
0
1.720086e+14
1.5954562e+14
1.4979217e+14
1.4213379e+14
1.738985e+14
1.6129842e+14
1.5143501e+14
1.4368837e+14
1.7562669e+14
1.6290121e+14
1.5293713e+14
1.4510961e+14
1.7720172e+14
1.6436192e+14
1.5430598e+14
1.4640459e+14
1.3610572e+14
1.3135759e+14
1.2762741e+14
1.2472249e+14
1.3758955e+14
1.3278495e+14
1.2901012e+14
1.2607055e+14
1.3894589e+14
1.3408946e+14
1.3027365e+14
1.2730224e+14
1.4018157e+14
1.3527775e+14
1.3142444e+14
1.2842389e+14
1.2250563e+14
1.2088523e+14
1.1980876e+14
1.1925878e+14
1.2382764e+14
1.2218888e+14
1.2110115e+14
1.2054676e+14
1.2503541e+14
1.2337978e+14
1.2228171e+14
1.2172329e+14
1.2613516e+14
1.244641e+14
1.2335657e+14
1.2279446e+14
1.1925125e+14
1.1983605e+14
1.2109959e+14
1.2316958e+14
1.2054177e+14
1.2113649e+14
1.2241812e+14
1.2451558e+14
1.2172065e+14
1.2232448e+14
1.2362271e+14
1.2574539e+14
1.2279397e+14
1.2340615e+14
1.2471957e+14
1.2686529e+14
1.2622242e+14
1.3049356e+14
1.3629144e+14
1.4401603e+14
1.2760704e+14
1.3193026e+14
1.3779682e+14
1.4561078e+14
1.2887224e+14
1.3324317e+14
1.3917259e+14
1.4706832e+14
1.3002446e+14
1.3443894e+14
1.4042572e+14
1.4839599e+14
0
0
0
0
0
0
0
0
0
0
0
0
0
0
0
0
0
0
0
0
0
0
0
0
0
0
0
0
0
0
0
0
0
0
0
0
0
0
0
0
0
0
0
0
0
0
0
0
0
0
0
0
0
0
0
0
0
0
0
0
0
0
0
0
0
0
0
0
0
0
0
0
0
0
0
0
0
0
0
0
0
0
0
0
0
0
0
0
0
0
0
0
0
0
0
0
0
0
0
0
0
0
0
0
0
0
0
0
0
0
0
0
0
0
0
0
0
0
0
0
0
0
0
0
0
0
0
0
0
0
0
0
0
0
0
0
0
0
0
0
0
0
0
0
0
0
0
0
0
0
0
0
0
0
0
0
0
0
0
0
0
0
0
0
0
0
0
0
0
0
0
0
0
0
0
0
0
0
0
0
0
0
0
0
0
0
0
0
0
0
0
0
0
0
0
0
0
0
0
0
0
0
0
0
0
0
0
0
0
0
0
0
0
0
0
0
0
0
0
0
0
0
0
0
0
0
0
0
0
0
0
0
0
0
0
0
0
0
0
0
1.7863152e+14
1.6568791e+14
1.5554848e+14
1.4757991e+14
1.7992339e+14
1.6688596e+14
1.5667101e+14
1.4864162e+14
1.8108402e+14
1.6796227e+14
1.5767941e+14
1.4959528e+14
1.8211948e+14
1.6892249e+14
1.5857897e+14
1.5044592e+14
1.413029e+14
1.3635592e+14
1.3246844e+14
1.2944133e+14
1.4231572e+14
1.3732961e+14
1.3341114e+14
1.3035995e+14
1.4322533e+14
1.3820398e+14
1.3425757e+14
1.3118465e+14
1.4403659e+14
1.389837e+14
1.3501229e+14
1.3191991e+14
1.2713264e+14
1.254475e+14
1.2433135e+14
1.2376589e+14
1.2803314e+14
1.2633524e+14
1.2521127e+14
1.2464276e+14
1.2884151e+14
1.2713209e+14
1.2600107e+14
1.2542983e+14
1.2956215e+14
1.2784242e+14
1.2670508e+14
1.2613138e+14
1.2376737e+14
1.2438716e+14
1.2571441e+14
1.2788111e+14
1.2464603e+14
1.2527272e+14
1.2661251e+14
1.2879821e+14
1.2543471e+14
1.2606762e+14
1.274187e+14
1.296215e+14
1.2613771e+14
1.2677618e+14
1.2813737e+14
1.3035546e+14
1.3106968e+14
1.3552375e+14
1.4156263e+14
1.4960059e+14
1.320134e+14
1.3650328e+14
1.4258927e+14
1.5068842e+14
1.3286064e+14
1.3738274e+14
1.4351109e+14
1.5166521e+14
1.3361601e+14
1.3816687e+14
1.4433304e+14
1.525362e+14
0
0
0
0
0
0
0
0
0
0
0
0
0
0
0
0
0
0
0
0
0
0
0
0
0
0
0
0
0
0
0
0
0
0
0
0
0
0
0
0
0
0
0
0
0
0
0
0
0
0
0
0
0
0
0
0
0
0
0
0
0
0
0
0
0
0
0
0
0
0
0
0
0
0
0
0
0
0
0
0
0
0
0
0
0
0
0
0
0
0
0
0
0
0
0
0
0
0
0
0
0
0
0
0
0
0
0
0
0
0
0
0
0
0
0
0
0
0
0
0
0
0
0
0
0
0
0
0
0
0
0
0
0
0
0
0
0
0
0
0
0
0
0
0
0
0
0
0
0
0
0
0
0
0
0
0
0
0
0
0
0
0
0
0
0
0
0
0
0
0
0
0
0
0
0
0
0
0
0
0
0
0
0
0
0
0
0
0
0
0
0
0
0
0
0
0
0
0
0
0
0
0
0
0
0
0
0
0
0
0
0
0
0
0
0
0
0
0
0
0
0
0
0
0
0
0
0
0
0
0
0
0
0
0
0
0
0
0
0
0
1.8303526e+14
1.697717e+14
1.5937449e+14
1.511981e+14
1.8383624e+14
1.7051446e+14
1.6007024e+14
1.5185589e+14
1.8452678e+14
1.7115478e+14
1.6067e+14
1.5242286e+14
1.8511061e+14
1.7169617e+14
1.6117705e+14
1.5290215e+14
1.4475387e+14
1.3967299e+14
1.356794e+14
1.3256976e+14
1.4538105e+14
1.4027564e+14
1.3626259e+14
1.331378e+14
1.4592158e+14
1.4079497e+14
1.3676508e+14
1.3362718e+14
1.4637847e+14
1.4123387e+14
1.3718971e+14
1.3404069e+14
1.3019902e+14
1.2847013e+14
1.2732719e+14
1.2675131e+14
1.3075565e+14
1.2901872e+14
1.2787086e+14
1.2729307e+14
1.3123518e+14
1.294913e+14
1.2833918e+14
1.2775973e+14
1.3164032e+14
1.2989053e+14
1.287348e+14
1.2815395e+14
1.2675892e+14
1.2740232e+14
1.2877247e+14
1.3100411e+14
1.2730181e+14
1.2794954e+14
1.2932754e+14
1.3157106e+14
1.2776944e+14
1.2842091e+14
1.298057e+14
1.3205947e+14
1.2816448e+14
1.2881913e+14
1.3020967e+14
1.3247213e+14
1.3428362e+14
1.3885995e+14
1.4505957e+14
1.5330613e+14
1.3486716e+14
1.394658e+14
1.456947e+14
1.539792e+14
1.3536991e+14
1.3998779e+14
1.4624194e+14
1.5455916e+14
1.357947e+14
1.4042886e+14
1.4670437e+14
1.5504927e+14
0
0
0
0
0
0
0
0
0
0
0
0
0
0
0
0
0
0
0
0
0
0
0
0
0
0
0
0
0
0
0
0
0
0
0
0
0
0
0
0
0
0
0
0
0
0
0
0
0
0
0
0
0
0
0
0
0
0
0
0
0
0
0
0
0
0
0
0
0
0
0
0
0
0
0
0
0
0
0
0
0
0
0
0
0
0
0
0
0
0
0
0
0
0
0
0
0
0
0
0
0
0
0
0
0
0
0
0
0
0
0
0
0
0
0
0
0
0
0
0
0
0
0
0
0
0
0
0
0
0
0
0
0
0
0
0
0
0
0
0
0
0
0
0
0
0
0
0
0
0
0
0
0
0
0
0
0
0
0
0
0
0
0
0
0
0
0
0
0
0
0
0
0
0
0
0
0
0
0
0
0
0
0
0
0
0
0
0
0
0
0
0
0
0
0
0
0
0
0
0
0
0
0
0
0
0
0
0
0
0
0
0
0
0
0
0
0
0
0
0
0
0
0
0
0
0
0
0
0
0
0
0
0
0
0
0
0
0
0
0
1.8559098e+14
1.721416e+14
1.6159421e+14
1.5329643e+14
1.8597057e+14
1.7249358e+14
1.6192383e+14
1.5360792e+14
1.8625151e+14
1.727541e+14
1.6216777e+14
1.5383841e+14
1.8643546e+14
1.7292469e+14
1.6232747e+14
1.5398926e+14
1.4675427e+14
1.4159483e+14
1.3753887e+14
1.3438067e+14
1.4705111e+14
1.418799e+14
1.3781459e+14
1.3464909e+14
1.4727071e+14
1.4209074e+14
1.3801846e+14
1.3484753e+14
1.4741437e+14
1.422286e+14
1.3815171e+14
1.3497717e+14
1.3197338e+14
1.3021872e+14
1.2906001e+14
1.28478e+14
1.3223631e+14
1.3047778e+14
1.293167e+14
1.2873377e+14
1.3243066e+14
1.3066924e+14
1.2950639e+14
1.2892278e+14
1.3255759e+14
1.3079426e+14
1.2963024e+14
1.2904618e+14
1.2848921e+14
1.2914648e+14
1.3054176e+14
1.3281138e+14
1.2874552e+14
1.2940487e+14
1.3080391e+14
1.3307921e+14
1.2893494e+14
1.2959583e+14
1.3099767e+14
1.3327719e+14
1.2905861e+14
1.2972052e+14
1.3112422e+14
1.3340653e+14
1.3614396e+14
1.4079153e+14
1.4708462e+14
1.5545228e+14
1.3641971e+14
1.4107789e+14
1.4738489e+14
1.5577054e+14
1.3662357e+14
1.4128962e+14
1.4760693e+14
1.5600589e+14
1.3675678e+14
1.4142801e+14
1.4775207e+14
1.5615975e+14
0
0
0
0
0
0
0
0
0
0
0
0
0
0
0
0
0
0
0
0
0
0
0
0
0
0
0
0
0
0
0
0
0
0
0
0
0
0
0
0
0
0
0
0
0
0
0
0
0
0
0
0
0
0
0
0
0
0
0
0
0
0
0
0
0
0
0
0
0
0
0
0
0
0
0
0
0
0
0
0
0
0
0
0
0
0
0
0
0
0
0
0
0
0
0
0
0
0
0
0
0
0
0
0
0
0
0
0
0
0
0
0
0
0
0
0
0
0
0
0
0
0
0
0
0
0
0
0
0
0
0
0
0
0
0
0
0
0
0
0
0
0
0
0
0
0
0
0
0
0
0
0
0
0
0
0
0
0
0
0
0
0
0
0
0
0
0
0
0
0
0
0
0
0
0
0
0
0
0
0
0
0
0
0
0
0
0
0
0
0
0
0
0
0
0
0
0
0
0
0
0
0
0
0
0
0
0
0
0
0
0
0
0
0
0
0
0
0
0
0
0
0
0
0
0
0
0
0
0
0
0
0
0
0
0
0
0
0
0
0
1.8652354e+14
1.7300638e+14
1.6240391e+14
1.5406138e+14
1.8651635e+14
1.7299974e+14
1.6239762e+14
1.540553e+14
1.8641401e+14
1.7290488e+14
1.623087e+14
1.539711e+14
1.8621612e+14
1.7272143e+14
1.621368e+14
1.5380845e+14
1.4748297e+14
1.4229435e+14
1.3821517e+14
1.3503884e+14
1.4747701e+14
1.4228845e+14
1.3820929e+14
1.3503298e+14
1.4739656e+14
1.4221097e+14
1.3813416e+14
1.3495966e+14
1.4724131e+14
1.4206162e+14
1.3798947e+14
1.348186e+14
1.3261791e+14
1.3085362e+14
1.2968903e+14
1.2910475e+14
1.3261205e+14
1.3084778e+14
1.2968319e+14
1.2909892e+14
1.325401e+14
1.3077679e+14
1.2961279e+14
1.2902876e+14
1.3240175e+14
1.3064036e+14
1.2947756e+14
1.28894e+14
1.2911732e+14
1.2977975e+14
1.3118436e+14
1.3346803e+14
1.291115e+14
1.2977393e+14
1.3117853e+14
1.3346217e+14
1.2904122e+14
1.2970315e+14
1.3110681e+14
1.33389e+14
1.2890621e+14
1.2956712e+14
1.309689e+14
1.3324823e+14
1.3682018e+14
1.4149391e+14
1.4782123e+14
1.5623308e+14
1.3681423e+14
1.4148782e+14
1.4781491e+14
1.5622643e+14
1.3673901e+14
1.4140982e+14
1.4773321e+14
1.5613988e+14
1.3659422e+14
1.4125959e+14
1.4757579e+14
1.559731e+14
0
0
0
0
0
0
0
0
0
0
0
0
0
0
0
0
0
0
0
0
0
0
0
0
0
0
0
0
0
0
0
0
0
0
0
0
0
0
0
0
0
0
0
0
0
0
0
0
0
0
0
0
0
0
0
0
0
0
0
0
0
0
0
0
0
0
0
0
0
0
0
0
0
0
0
0
0
0
0
0
0
0
0
0
0
0
0
0
0
0
0
0
0
0
0
0
0
0
0
0
0
0
0
0
0
0
0
0
0
0
0
0
0
0
0
0
0
0
0
0
0
0
0
0
0
0
0
0
0
0
0
0
0
0
0
0
0
0
0
0
0
0
0
0
0
0
0
0
0
0
0
0
0
0
0
0
0
0
0
0
0
0
0
0
0
0
0
0
0
0
0
0
0
0
0
0
0
0
0
0
0
0
0
0
0
0
0
0
0
0
0
0
0
0
0
0
0
0
0
0
0
0
0
0
0
0
0
0
0
0
0
0
0
0
0
0
0
0
0
0
0
0
0
0
0
0
0
0
0
0
0
0
0
0
0
0
0
0
0
0
1.8592179e+14
1.7244857e+14
1.6188115e+14
1.5356661e+14
1.8552963e+14
1.72085e+14
1.6154052e+14
1.5324443e+14
1.8503775e+14
1.7162895e+14
1.6111327e+14
1.5284033e+14
1.8444372e+14
1.7107821e+14
1.605973e+14
1.5235232e+14
1.4701055e+14
1.4183972e+14
1.3777456e+14
1.3460912e+14
1.4670317e+14
1.4154416e+14
1.3748837e+14
1.3433021e+14
1.4631766e+14
1.4117351e+14
1.3712948e+14
1.3398046e+14
1.458521e+14
1.407259e+14
1.3669608e+14
1.3355812e+14
1.3219637e+14
1.3043787e+14
1.2927684e+14
1.2869399e+14
1.3192293e+14
1.301683e+14
1.2900965e+14
1.2842774e+14
1.3158006e+14
1.2983029e+14
1.2867463e+14
1.280939e+14
1.3116603e+14
1.2942213e+14
1.2827008e+14
1.2769078e+14
1.2870582e+14
1.2936519e+14
1.3076417e+14
1.3303922e+14
1.2843906e+14
1.2909638e+14
1.3049159e+14
1.3276092e+14
1.2810457e+14
1.2875931e+14
1.301498e+14
1.3241195e+14
1.2770066e+14
1.2835227e+14
1.2973705e+14
1.3199052e+14
1.3637919e+14
1.4103644e+14
1.4734194e+14
1.5572531e+14
1.3609286e+14
1.4073928e+14
1.470305e+14
1.553953e+14
1.357338e+14
1.4036663e+14
1.4663994e+14
1.5498145e+14
1.3530019e+14
1.399166e+14
1.4616828e+14
1.5448167e+14
0
0
0
0
0
0
0
0
0
0
0
0
0
0
0
0
0
0
0
0
0
0
0
0
0
0
0
0
0
0
0
0
0
0
0
0
0
0
0
0
0
0
0
0
0
0
0
0
0
0
0
0
0
0
0
0
0
0
0
0
0
0
0
0
0
0
0
0
0
0
0
0
0
0
0
0
0
0
0
0
0
0
0
0
0
0
0
0
0
0
0
0
0
0
0
0
0
0
0
0
0
0
0
0
0
0
0
0
0
0
0
0
0
0
0
0
0
0
0
0
0
0
0
0
0
0
0
0
0
0
0
0
0
0
0
0
0
0
0
0
0
0
0
0
0
0
0
0
0
0
0
0
0
0
0
0
0
0
0
0
0
0
0
0
0
0
0
0
0
0
0
0
0
0
0
0
0
0
0
0
0
0
0
0
0
0
0
0
0
0
0
0
0
0
0
0
0
0
0
0
0
0
0
0
0
0
0
0
0
0
0
0
0
0
0
0
0
0
0
0
0
0
0
0
0
0
0
0
0
0
0
0
0
0
0
0
0
0
0
0
1.8374466e+14
1.7043007e+14
1.5999006e+14
1.5177798e+14
1.8293712e+14
1.6968133e+14
1.5928857e+14
1.5111446e+14
1.8201718e+14
1.6882836e+14
1.5848937e+14
1.5035849e+14
1.8098035e+14
1.67867e+14
1.5758858e+14
1.4950637e+14
1.4530418e+14
1.4019909e+14
1.3618599e+14
1.3306102e+14
1.4467115e+14
1.3959044e+14
1.3559663e+14
1.3248666e+14
1.4394988e+14
1.388969e+14
1.3492503e+14
1.3183212e+14
1.4313681e+14
1.3811502e+14
1.3416784e+14
1.3109411e+14
1.3067871e+14
1.2894172e+14
1.2779391e+14
1.2721628e+14
1.3011563e+14
1.283866e+14
1.2724369e+14
1.26668e+14
1.2947392e+14
1.2775395e+14
1.266166e+14
1.2604311e+14
1.2875034e+14
1.2704055e+14
1.2590947e+14
1.2533844e+14
1.2722524e+14
1.2787318e+14
1.2925124e+14
1.314945e+14
1.2667589e+14
1.2731958e+14
1.2868988e+14
1.3092135e+14
1.2604979e+14
1.2668865e+14
1.2805012e+14
1.3026817e+14
1.2534375e+14
1.2597718e+14
1.2732871e+14
1.2953166e+14
1.3478984e+14
1.3938692e+14
1.4561314e+14
1.5389344e+14
1.3420014e+14
1.387749e+14
1.4497173e+14
1.532138e+14
1.3352811e+14
1.3807747e+14
1.4424082e+14
1.5243934e+14
1.3277037e+14
1.3729112e+14
1.4341674e+14
1.5156619e+14
0
0
0
0
0
0
0
0
0
0
0
0
0
0
0
0
0
0
0
0
0
0
0
0
0
0
0
0
0
0
0
0
0
0
0
0
0
0
0
0
0
0
0
0
0
0
0
0
0
0
0
0
0
0
0
0
0
0
0
0
0
0
0
0
0
0
0
0
0
0
0
0
0
0
0
0
0
0
0
0
0
0
0
0
0
0
0
0
0
0
0
0
0
0
0
0
0
0
0
0
0
0
0
0
0
0
0
0
0
0
0
0
0
0
0
0
0
0
0
0
0
0
0
0
0
0
0
0
0
0
0
0
0
0
0
0
0
0
0
0
0
0
0
0
0
0
0
0
0
0
0
0
0
0
0
0
0
0
0
0
0
0
0
0
0
0
0
0
0
0
0
0
0
0
0
0
0
0
0
0
0
0
0
0
0
0
0
0
0
0
0
0
0
0
0
0
0
0
0
0
0
0
0
0
0
0
0
0
0
0
0
0
0
0
0
0
0
0
0
0
0
0
0
0
0
0
0
0
0
0
0
0
0
0
0
0
0
0
0
0
1.7982165e+14
1.6679261e+14
1.5658184e+14
1.4855394e+14
1.7853557e+14
1.6560007e+14
1.554643e+14
1.4749661e+14
1.7711603e+14
1.6428376e+14
1.542307e+14
1.4632935e+14
1.7555648e+14
1.6283757e+14
1.5287528e+14
1.4504669e+14
1.4222795e+14
1.3724095e+14
1.3332129e+14
1.3026894e+14
1.4121889e+14
1.3627042e+14
1.3238122e+14
1.2935253e+14
1.4010479e+14
1.3519873e+14
1.3134305e+14
1.283404e+14
1.3888039e+14
1.3402078e+14
1.3020181e+14
1.2722766e+14
1.2794125e+14
1.2624281e+14
1.2511871e+14
1.2455043e+14
1.2704263e+14
1.2535675e+14
1.2424037e+14
1.2367514e+14
1.2605006e+14
1.24378e+14
1.2327011e+14
1.2270823e+14
1.2495874e+14
1.2330179e+14
1.2220319e+14
1.2164498e+14
1.2455422e+14
1.2518158e+14
1.2652203e+14
1.2870812e+14
1.2367724e+14
1.2429789e+14
1.2562606e+14
1.2779346e+14
1.2270847e+14
1.2332174e+14
1.2463638e+14
1.267832e+14
1.2164319e+14
1.2224836e+14
1.2354817e+14
1.2567243e+14
1.3192314e+14
1.3641193e+14
1.4249541e+14
1.5059004e+14
1.3098223e+14
1.3543557e+14
1.414723e+14
1.4950608e+14
1.2994301e+14
1.3435727e+14
1.4034244e+14
1.4830907e+14
1.2880049e+14
1.3317185e+14
1.391004e+14
1.4699326e+14
0
0
0
0
0
0
0
0
0
0
0
0
0
0
0
0
0
0
0
0
0
0
0
0
0
0
0
0
0
0
0
0
0
0
0
0
0
0
0
0
0
0
0
0
0
0
0
0
0
0
0
0
0
0
0
0
0
0
0
0
0
0
0
0
0
0
0
0
0
0
0
0
0
0
0
0
0
0
0
0
0
0
0
0
0
0
0
0
0
0
0
0
0
0
0
0
0
0
0
0
0
0
0
0
0
0
0
0
0
0
0
0
0
0
0
0
0
0
0
0
0
0
0
0
0
0
0
0
0
0
0
0
0
0
0
0
0
0
0
0
0
0
0
0
0
0
0
0
0
0
0
0
0
0
0
0
0
0
0
0
0
0
0
0
0
0
0
0
0
0
0
0
0
0
0
0
0
0
0
0
0
0
0
0
0
0
0
0
0
0
0
0
0
0
0
0
0
0
0
0
0
0
0
0
0
0
0
0
0
0
0
0
0
0
0
0
0
0
0
0
0
0
0
0
0
0
0
0
0
0
0
0
0
0
0
0
0
0
0
0
1.738498e+14
1.6125489e+14
1.5139181e+14
1.4364269e+14
1.7198838e+14
1.5952866e+14
1.4977365e+14
1.4211102e+14
1.6996411e+14
1.5765134e+14
1.4801369e+14
1.4044491e+14
1.6776841e+14
1.5561496e+14
1.4610442e+14
1.3863718e+14
1.3753999e+14
1.3273106e+14
1.2895212e+14
1.2600902e+14
1.3607748e+14
1.3132364e+14
1.2758817e+14
1.2467881e+14
1.3448635e+14
1.2979219e+14
1.261038e+14
1.2323093e+14
1.3275968e+14
1.2812999e+14
1.2449242e+14
1.2165895e+14
1.2376344e+14
1.2212296e+14
1.2103449e+14
1.2048027e+14
1.2245856e+14
1.2083596e+14
1.1975848e+14
1.192086e+14
1.210381e+14
1.1943484e+14
1.1836925e+14
1.1782406e+14
1.1949568e+14
1.1791328e+14
1.168605e+14
1.1632036e+14
1.2047626e+14
1.2107259e+14
1.2235623e+14
1.2445584e+14
1.1920217e+14
1.197889e+14
1.2105494e+14
1.2312773e+14
1.17815e+14
1.1839132e+14
1.1963828e+14
1.2168196e+14
1.1630846e+14
1.1687351e+14
1.1809982e+14
1.2011201e+14
1.2754921e+14
1.3187369e+14
1.377403e+14
1.4555246e+14
1.2618332e+14
1.3045672e+14
1.3625582e+14
1.4397997e+14
1.2469654e+14
1.2891445e+14
1.3464019e+14
1.4226863e+14
1.2308218e+14
1.2723997e+14
1.3288617e+14
1.404108e+14
0
0
0
0
0
0
0
0
0
0
0
0
0
0
0
0
0
0
0
0
0
0
0
0
0
0
0
0
0
0
0
0
0
0
0
0
0
0
0
0
0
0
0
0
0
0
0
0
0
0
0
0
0
0
0
0
0
0
0
0
0
0
0
0
0
0
0
0
0
0
0
0
0
0
0
0
0
0
0
0
0
0
0
0
0
0
0
0
0
0
0
0
0
0
0
0
0
0
0
0
0
0
0
0
0
0
0
0
0
0
0
0
0
0
0
0
0
0
0
0
0
0
0
0
0
0
0
0
0
0
0
0
0
0
0
0
0
0
0
0
0
0
0
0
0
0
0
0
0
0
0
0
0
0
0
0
0
0
0
0
0
0
0
0
0
0
0
0
0
0
0
0
0
0
0
0
0
0
0
0
0
0
0
0
0
0
0
0
0
0
0
0
0
0
0
0
0
0
0
0
0
0
0
0
0
0
0
0
0
0
0
0
0
0
0
0
0
0
0
0
0
0
0
0
0
0
0
0
0
0
0
0
0
0
0
0
0
0
0
0
1.653923e+14
1.5341115e+14
1.4403793e+14
1.3668028e+14
1.628264e+14
1.5103118e+14
1.4180598e+14
1.3456635e+14
1.6006105e+14
1.4846606e+14
1.3940008e+14
1.3228723e+14
1.5708638e+14
1.4570659e+14
1.368115e+14
1.2983456e+14
1.308902e+14
1.2632997e+14
1.2274712e+14
1.1995603e+14
1.288703e+14
1.2438471e+14
1.2086062e+14
1.1811501e+14
1.2669208e+14
1.2228652e+14
1.1882537e+14
1.1612845e+14
1.2434745e+14
1.2002748e+14
1.1663357e+14
1.139886e+14
1.1782456e+14
1.1626459e+14
1.1522558e+14
1.1469084e+14
1.1601766e+14
1.1448172e+14
1.1345746e+14
1.1292849e+14
1.1406757e+14
1.1255731e+14
1.1154879e+14
1.1102594e+14
1.1196662e+14
1.1048372e+14
1.0949192e+14
1.0897551e+14
1.1467585e+14
1.1522874e+14
1.1643276e+14
1.1841094e+14
1.1291014e+14
1.1344991e+14
1.1462991e+14
1.1657142e+14
1.1100392e+14
1.1152955e+14
1.1268369e+14
1.1458573e+14
1.0894946e+14
1.0945984e+14
1.1058616e+14
1.1244577e+14
1.2133312e+14
1.2542591e+14
1.3098608e+14
1.3839835e+14
1.1944185e+14
1.2346451e+14
1.2893178e+14
1.3622268e+14
1.1740044e+14
1.2134754e+14
1.2671469e+14
1.3387471e+14
1.1520056e+14
1.1906639e+14
1.2432579e+14
1.3134488e+14
0
0
0
0
0
0
0
0
0
0
0
0
0
0
0
0
0
0
0
0
0
0
0
0
0
0
0
0
0
0
0
0
0
0
0
0
0
0
0
0
0
0
0
0
0
0
0
0
0
0
0
0
0
0
0
0
0
0
0
0
0
0
0
0
0
0
0
0
0
0
0
0
0
0
0
0
0
0
0
0
0
0
0
0
0
0
0
0
0
0
0
0
0
0
0
0
0
0
0
0
0
0
0
0
0
0
0
0
0
0
0
0
0
0
0
0
0
0
0
0
0
0
0
0
0
0
0
0
0
0
0
0
0
0
0
0
0
0
0
0
0
0
0
0
0
0
0
0
0
0
0
0
0
0
0
0
0
0
0
0
0
0
0
0
0
0
0
0
0
0
0
0
0
0
0
0
0
0
0
0
0
0
0
0
0
0
0
0
0
0
0
0
0
0
0
0
0
0
0
0
0
0
0
0
0
0
0
0
0
0
0
0
0
0
0
0
0
0
0
0
0
0
0
0
0
0
0
0
0
0
0
0
0
0
0
0
0
0
0
0
1.5389251e+14
1.4274352e+14
1.3403146e+14
1.2719989e+14
1.5046963e+14
1.3956767e+14
1.3105122e+14
1.2437478e+14
1.4680833e+14
1.361702e+14
1.2786232e+14
1.21351e+14
1.4289987e+14
1.3254284e+14
1.2445679e+14
1.1812076e+14
1.2182818e+14
1.1759952e+14
1.1427725e+14
1.1168757e+14
1.1912604e+14
1.1499452e+14
1.1174836e+14
1.0921733e+14
1.1623293e+14
1.1220446e+14
1.0903889e+14
1.0656985e+14
1.1314113e+14
1.0922161e+14
1.0614106e+14
1.0373723e+14
1.0970693e+14
1.0825305e+14
1.0727893e+14
1.0676923e+14
1.0728046e+14
1.0585723e+14
1.0490169e+14
1.043989e+14
1.0467912e+14
1.0328809e+14
1.0235193e+14
1.018561e+14
1.0189489e+14
1.0053745e+14
9.9621286e+13
9.9132291e+13
1.0673872e+14
1.0723264e+14
1.0832904e+14
1.1014306e+14
1.0436337e+14
1.0483949e+14
1.059037e+14
1.0766875e+14
1.0181487e+14
1.0227165e+14
1.0330118e+14
1.0501361e+14
9.9084442e+13
9.952011e+13
1.0051218e+14
1.02168e+14
1.1283348e+14
1.1661198e+14
1.2175557e+14
1.2862311e+14
1.1029007e+14
1.1397483e+14
1.1899405e+14
1.2569882e+14
1.0756077e+14
1.1114493e+14
1.1603072e+14
1.2256081e+14
1.0463552e+14
1.0811177e+14
1.1285445e+14
1.191972e+14
0
0
0
0
0
0
0
0
0
0
0
0
0
0
0
0
0
0
0
0
0
0
0
0
0
0
0
0
0
0
0
0
0
0
0
0
0
0
0
0
0
0
0
0
0
0
0
0
0
0
0
0
0
0
0
0
0
0
0
0
0
0
0
0
0
0
0
0
0
0
0
0
0
0
0
0
0
0
0
0
0
0
0
0
0
0
0
0
0
0
0
0
0
0
0
0
0
0
0
0
0
0
0
0
0
0
0
0
0
0
0
0
0
0
0
0
0
0
0
0
0
0
0
0
0
0
0
0
0
0
0
0
0
0
0
0
0
0
0
0
0
0
0
0
0
0
0
0
0
0
0
0
0
0
0
0
0
0
0
0
0
0
0
0
0
0
0
0
0
0
0
0
0
0
0
0
0
0
0
0
0
0
0
0
0
0
0
0
0
0
0
0
0
0
0
0
0
0
0
0
0
0
0
0
0
0
0
0
0
0
0
0
0
0
0
0
0
0
0
0
0
0
0
0
0
0
0
0
0
0
0
0
0
0
0
0
0
0
0
0
1.387366e+14
1.286783e+14
1.2082752e+14
1.14677e+14
1.3431251e+14
1.2457074e+14
1.1696869e+14
1.110138e+14
1.2962394e+14
1.2021643e+14
1.1287635e+14
1.071269e+14
1.2467048e+14
1.1561458e+14
1.0854923e+14
1.0301446e+14
1.0984354e+14
1.0603876e+14
1.0304749e+14
1.007119e+14
1.0633405e+14
1.0264955e+14
9.9751514e+13
9.7486862e+13
1.0260803e+14
9.9048897e+13
9.6247561e+13
9.4056003e+13
9.8662964e+13
9.5233591e+13
9.2531665e+13
9.0414563e+13
9.8919969e+13
9.7597267e+13
9.6701436e+13
9.6218844e+13
9.5746982e+13
9.445976e+13
9.3584194e+13
9.3107138e+13
9.2369254e+13
9.1117664e+13
9.0261672e+13
8.9788642e+13
8.8781189e+13
8.7564511e+13
8.6726493e+13
8.6255033e+13
9.6163141e+13
9.6575573e+13
9.7527015e+13
9.9121828e+13
9.3041887e+13
9.342847e+13
9.4335603e+13
9.5864412e+13
8.971148e+13
9.00689e+13
9.0927297e+13
9.2384328e+13
8.6162614e+13
8.6486537e+13
8.7290709e+13
8.8669064e+13
1.0150375e+14
1.0486417e+14
1.0945337e+14
1.1559527e+14
9.8154129e+13
1.013901e+14
1.0581458e+14
1.1174112e+14
9.4574386e+13
9.7676312e+13
1.0192381e+14
1.0761923e+14
9.0750818e+13
9.3707846e+13
9.7764674e+13
1.0321168e+14
0
0
0
0
0
0
0
0
0
0
0
0
0
0
0
0
0
0
0
0
0
0
0
0
0
0
0
0
0
0
0
0
0
0
0
0
0
0
0
0
0
0
0
0
0
0
0
0
0
0
0
0
0
0
0
0
0
0
0
0
0
0
0
0
0
0
0
0
0
0
0
0
0
0
0
0
0
0
0
0
0
0
0
0
0
0
0
0
0
0
0
0
0
0
0
0
0
0
0
0
0
0
0
0
0
0
0
0
0
0
0
0
0
0
0
0
0
0
0
0
0
0
0
0
0
0
0
0
0
0
0
0
0
0
0
0
0
0
0
0
0
0
0
0
0
0
0
0
0
0
0
0
0
0
0
0
0
0
0
0
0
0
0
0
0
0
0
0
0
0
0
0
0
0
0
0
0
0
0
0
0
0
0
0
0
0
0