/*--------------------------------*- C++ -*----------------------------------*\
| =========                 |                                                 |
| \\      /  F ield         | OpenFOAM: The Open Source CFD Toolbox           |
|  \\    /   O peration     | Version:  1.4.1-dev                             |
|   \\  /    A nd           | Web:      http://www.openfoam.org               |
|    \\/     M anipulation  |                                                 |
\*---------------------------------------------------------------------------*/

FoamFile
{
    version 2.0;
    format ascii;

    root "/home/cliffoi/OpenFOAM/cliffoi-1.4.1-dev/run/diffusionFoam";
    case "oecd_simplified_2G";
    instance "0";
    local "";

    class volScalarField;
    object importance;
}

// * * * * * * * * * * * * * * * * * * * * * * * * * * * * * * * * * * * * * //

dimensions      [0 0 0 0 0 0 0];

internalField   nonuniform List<scalar> 
9280
(
0.0017625088
0.0030530022
0.0039419924
0.0046651366
0.0028435553
0.0049254732
0.0063597877
0.0075266332
0.0036490559
0.0063207969
0.0081615208
0.0096593417
0.0043439445
0.007524576
0.0097162216
0.011499917
0.01034943
0.012939058
0.015109967
0.017026281
0.016698501
0.020879638
0.024387572
0.027487421
0.021432121
0.02680487
0.031318784
0.035314733
0.025519598
0.031927959
0.037323281
0.042111707
0.019289121
0.021016291
0.022621846
0.024120939
0.031150137
0.03395153
0.036559788
0.038998914
0.040041337
0.043668945
0.047055255
0.050230236
0.047784898
0.052161275
0.056261829
0.06012085
0.011575218
0.01171196
0.011847248
0.01197975
0.01871948
0.018943047
0.019163074
0.019379782
0.024121664
0.024413051
0.024700517
0.024983943
0.028890704
0.0292468
0.029595552
0.029944863
0.015575899
0.015843745
0.01610416
0.016356887
0.025200323
0.025637709
0.026063174
0.026476057
0.032494378
0.033066991
0.033624262
0.034165659
0.038957316
0.039659529
0.040342404
0.041007629
0.013728129
0.013864957
0.013997968
0.014127909
0.02222451
0.022447809
0.022665552
0.022878446
0.028685689
0.028978335
0.029264536
0.029543988
0.034440724
0.034800891
0.035153805
0.035498518
0.021016259
0.021393522
0.021747427
0.022076542
0.034039092
0.034657629
0.035238056
0.035778715
0.043968178
0.044781997
0.045546581
0.046259524
0.05284946
0.053854092
0.05480037
0.055682926
0.022380611
0.02265829
0.022908953
0.023132084
0.036278214
0.036735202
0.037147909
0.03751528
0.046918689
0.047522255
0.048067831
0.048553869
0.056500815
0.05724987
0.057929498
0.05853377
0.023326077
0.023490913
0.023625767
0.023730155
0.037835773
0.038108406
0.038331716
0.0385051
0.048978363
0.049339511
0.049636168
0.049866595
0.059063834
0.059515842
0.059887617
0.060177164
0.023803288
0.023844943
0.023854774
0.023832514
0.038627585
0.038698282
0.038716761
0.038682757
0.050029933
0.050125004
0.050151132
0.050107668
0.060384108
0.060506691
0.060543501
0.060493923
0.023777575
0.023690811
0.023571231
0.023419382
0.038595481
0.038455271
0.038261673
0.038017044
0.049994362
0.049810834
0.049557073
0.049238075
0.060357401
0.060134551
0.059824666
0.05943636
0.015874383
0.015811248
0.015744181
0.015670053
0.025764731
0.025665383
0.025554431
0.025435113
0.03336313
0.03323544
0.03309004
0.03293171
0.040263827
0.040110015
0.039932228
0.039735882
0.018873142
0.018722208
0.018559769
0.018385377
0.03063399
0.030388255
0.030123589
0.029840706
0.039662076
0.039338701
0.038991416
0.038622138
0.047855889
0.047457317
0.047031377
0.046579777
0.014065108
0.01397633
0.013883482
0.013786883
0.022824618
0.022681599
0.022530772
0.022371274
0.029535558
0.029350372
0.029152174
0.028940641
0.035611738
0.035387396
0.035145321
0.034880957
0.019147464
0.018853587
0.018541468
0.018209933
0.03107377
0.030593698
0.030085364
0.029544349
0.04019948
0.03956882
0.038904762
0.038196468
0.048452744
0.047678457
0.046866793
0.046000054
0.020808148
0.02020417
0.019555495
0.018859173
0.033760465
0.032776717
0.03172168
0.030590452
0.043640951
0.042357297
0.04098398
0.039513449
0.052546432
0.050981462
0.04931228
0.047528448
0.017347159
0.01664949
0.015902463
0.015100319
0.028134917
0.027002186
0.025788993
0.024487259
0.036332559
0.03486321
0.03329053
0.03160601
0.043688084
0.041911145
0.040010482
0.037978664
0.013164203
0.012440221
0.011658393
0.010806797
0.021344748
0.020170761
0.018901689
0.017520484
0.027542832
0.026025897
0.024384956
0.022600462
0.033087036
0.031260528
0.029285012
0.027138951
0.0092540989
0.008415361
0.0074706301
0.0063749977
0.014999867
0.013639561
0.012105597
0.010331223
0.019343875
0.017587494
0.015605304
0.013318878
0.023222129
0.021110635
0.018726563
0.015984177
0.0034557164
0.0030807781
0.0026469354
0.0021271474
0.0055837166
0.0049841745
0.0042780069
0.003441177
0.0071775978
0.0064142985
0.0055000528
0.004428417
0.0085877102
0.0076844857
0.0065817042
0.0053043503
0.0049893
0.0086426092
0.011160271
0.01321006
0.0056119213
0.0097215877
0.01255426
0.014861045
0.0062242874
0.010782332
0.013925118
0.016484939
0.0068294523
0.011831377
0.015280507
0.018091315
0.029319583
0.036699111
0.04292795
0.048475018
0.03299134
0.041317143
0.048367182
0.0546705
0.036605764
0.045871893
0.053745287
0.060816256
0.040183241
0.050387518
0.059089646
0.066939619
0.055060366
0.060172959
0.06498593
0.069536752
0.062171389
0.068038112
0.073590899
0.078867179
0.06925183
0.075901676
0.082228729
0.088267168
0.076326703
0.083779851
0.090897095
0.097700624
0.033443994
0.033864053
0.034282772
0.034692693
0.037970182
0.038457655
0.03894539
0.039426628
0.042536825
0.043098272
0.043658645
0.044211573
0.047116829
0.047745279
0.048374873
0.048997776
0.045154519
0.045989444
0.046805057
0.04759855
0.051336512
0.052315724
0.053270467
0.054203075
0.057591142
0.058719044
0.059820731
0.060894922
0.063838283
0.065102542
0.066335916
0.067535978
0.039992816
0.040422448
0.040845764
0.041257636
0.04556123
0.046066761
0.046565592
0.047051232
0.05120723
0.051791782
0.052365093
0.052929849
0.056796223
0.057447789
0.058086571
0.058715366
0.061453864
0.062661827
0.063799228
0.064864535
0.070118941
0.071545428
0.072892092
0.074153864
0.078911079
0.080564054
0.082125163
0.083591352
0.087537958
0.089376927
0.091115712
0.09275165
0.065851178
0.066757724
0.067580581
0.068314656
0.075326087
0.076404156
0.077385339
0.078263077
0.084955968
0.086215668
0.087363054
0.088395393
0.094280994
0.095698041
0.096997162
0.098173479
0.068959009
0.069510507
0.069964113
0.070321837
0.07903485
0.079697361
0.080247121
0.080679789
0.08930648
0.090092416
0.090749636
0.09127304
0.099220135
0.10013324
0.10090746
0.10153691
0.070577549
0.070732116
0.070783259
0.070729661
0.080995347
0.081189662
0.081261468
0.081210466
0.091661284
0.091909508
0.092017967
0.091982087
0.10202082
0.1023525
0.10253227
0.10255569
0.07057314
0.070309708
0.069942541
0.06948353
0.081033835
0.08073373
0.080308628
0.079778661
0.091803201
0.091478162
0.09100859
0.090422113
0.10242103
0.10212686
0.1016702
0.10109112
0.047058811
0.04687921
0.046666912
0.04643084
0.054014347
0.053810949
0.053562277
0.053283039
0.061206202
0.060987658
0.060704034
0.060379658
0.068438784
0.068225577
0.067925556
0.067573419
0.055915252
0.055436114
0.05493033
0.054392047
0.064162901
0.063601363
0.063002266
0.062377912
0.072714096
0.072065274
0.07137901
0.070660404
0.081412013
0.080700915
0.079946363
0.079161392
0.041572256
0.04130761
0.041018765
0.040699338
0.04765706
0.04734732
0.047015459
0.046627239
0.053965461
0.053620747
0.053225698
0.052778495
0.060447403
0.060067516
0.059627631
0.059107942
0.056531821
0.055607209
0.054642859
0.053611236
0.064768022
0.063678834
0.06254981
0.061339867
0.073306099
0.072039734
0.070735518
0.069330383
0.082121491
0.080680385
0.07919499
0.077591743
0.061222001
0.059368825
0.05739889
0.055299222
0.070021132
0.06785929
0.065570399
0.063137761
0.079110572
0.076614909
0.073982192
0.071193589
0.088511594
0.085662632
0.082666489
0.079501305
0.050808966
0.048725648
0.046500364
0.044126865
0.0579797
0.055577894
0.0530169
0.050292759
0.065335984
0.062597001
0.059682482
0.056591759
0.072911597
0.069816223
0.06652924
0.063054822
0.038429908
0.036302494
0.034001012
0.031504682
0.043781479
0.041348099
0.038716454
0.035867425
0.049240544
0.046490917
0.043518943
0.040306484
0.054834335
0.051756669
0.048431457
0.044844907
0.026948947
0.024495059
0.021723255
0.018543148
0.030669009
0.027872787
0.024709772
0.021094902
0.03445126
0.031304116
0.027741846
0.023685643
0.038314164
0.034805857
0.030834533
0.026328008
0.0099308732
0.0088984605
0.0076130798
0.0061419912
0.011259664
0.010103057
0.0086336589
0.0069733591
0.012597897
0.011320571
0.009662084
0.007812928
0.013950005
0.012556452
0.010702377
0.0086647981
0.0074256937
0.012864259
0.016615718
0.019673972
0.008006466
0.013871008
0.017916626
0.021216117
0.0085635694
0.014836496
0.019164416
0.022695142
0.0090882698
0.015745356
0.020339318
0.024087026
0.043709642
0.054843655
0.064371537
0.072999583
0.047146565
0.059188401
0.069520808
0.078901879
0.05044194
0.063350136
0.074443389
0.084520234
0.053540943
0.06725561
0.079044276
0.08973201
0.083333764
0.091575591
0.099440181
0.10691062
0.09013697
0.099085052
0.10753266
0.11534952
0.096554293
0.10603148
0.11471278
0.12216736
0.10241899
0.11217527
0.12057907
0.12652959
0.051543195
0.052215562
0.052893133
0.053559338
0.055447997
0.056101507
0.056747124
0.057373722
0.058206532
0.05867352
0.059095731
0.059453893
0.072907497
0.081561424
0.0905868
0.10003317
0.069746392
0.071078127
0.072362371
0.07359796
0.074536452
0.07569984
0.076760138
0.077720099
0.082157462
0.096894019
0.11189812
0.12716081
0.14488422
0.16744356
0.19179377
0.217954
0.061839326
0.062498248
0.063142468
0.063775332
0.065029921
0.065486764
0.065914063
0.068149315
0.11619733
0.1249586
0.13363473
0.14213423
0.20019527
0.21661821
0.23346976
0.25053987
0.094951465
0.096783432
0.09851548
0.10015686
0.1112788
0.12504834
0.13705431
0.14736767
0.22746077
0.25035795
0.26995953
0.28651861
0.33870825
0.37207992
0.3991075
0.42125196
0.10170618
0.10315958
0.10451322
0.10575892
0.15611351
0.16343023
0.16944885
0.17427887
0.30040227
0.31196453
0.32150331
0.32924747
0.43953351
0.45468122
0.46721634
0.4775053
0.10689018
0.10790049
0.10878436
0.10953661
0.17800115
0.18066361
0.18227863
0.18282174
0.33535807
0.33992908
0.34299002
0.34450428
0.4857918
0.49221712
0.49683206
0.4996006
0.11015394
0.11063461
0.11097568
0.11117705
0.18222841
0.1803937
0.17717106
0.17237203
0.34436706
0.34239827
0.33833333
0.33181279
0.5003949
0.49898661
0.49502522
0.48800631
0.11123601
0.11114838
0.11090744
0.1105615
0.16577432
0.15712991
0.14619709
0.13270512
0.32237229
0.30944437
0.29239711
0.27062647
0.47722293
0.4616885
0.44001199
0.41014143
0.074955702
0.074830918
0.074584291
0.074269606
0.082877463
0.078795397
0.078861233
0.078826244
0.17173445
0.16280822
0.15359281
0.14415642
0.30390308
0.2855634
0.2671809
0.24902212
0.089616274
0.08895102
0.088230772
0.087469735
0.095589368
0.095348054
0.095000757
0.094564895
0.15996281
0.14257417
0.12507707
0.107465
0.27470881
0.24441342
0.21570156
0.18857935
0.066820358
0.066444612
0.065987821
0.06541736
0.072394846
0.072137937
0.071756593
0.071207225
0.075848483
0.075999421
0.075939911
0.07561517
0.1302339
0.11888019
0.10799767
0.09763139
0.090968013
0.089393851
0.087768196
0.085987235
0.09926694
0.097711357
0.096069077
0.094197646
0.10603805
0.10487941
0.10350441
0.10175001
0.11439623
0.11011658
0.10949513
0.10819205
0.098096162
0.094903606
0.091544532
0.087995063
0.10757298
0.10410068
0.10042383
0.09651493
0.11650569
0.11291532
0.10902497
0.10483152
0.124483
0.12101607
0.11707389
0.1127015
0.080653392
0.077192146
0.073518194
0.069648339
0.088430854
0.08460592
0.080548454
0.076280336
0.096050277
0.0918951
0.087470849
0.082822205
0.10331453
0.09887468
0.094124073
0.089125219
0.060534546
0.057120221
0.053431683
0.049462348
0.066266208
0.062512683
0.05845783
0.054102708
0.071919635
0.067836267
0.063420823
0.058686155
0.077375261
0.072979431
0.068220133
0.063121873
0.042239482
0.038364321
0.033972855
0.02901078
0.046181278
0.041936112
0.037121862
0.031702478
0.050072959
0.045461839
0.040228342
0.034360451
0.053838348
0.048874676
0.043233296
0.036933774
0.01531085
0.01380409
0.011749216
0.0095247903
0.016660505
0.015049828
0.012788853
0.010382514
0.017976608
0.016270977
0.013803215
0.011223798
0.019233695
0.017443305
0.014774066
0.012031662
0.0095728501
0.01658499
0.021423883
0.02537183
0.010012467
0.017346662
0.022407655
0.026536659
0.010405244
0.018027364
0.023286464
0.027576712
0.010752242
0.018628308
0.024062299
0.028494737
0.056398421
0.070846222
0.083253792
0.094461409
0.058986159
0.074088514
0.087039498
0.098693145
0.061294316
0.076973267
0.090396798
0.10243535
0.063329288
0.079511052
0.093341147
0.10571166
0.10766215
0.11749229
0.12522406
0.16031915
0.11232766
0.12221043
0.12940592
0.1963116
0.11645389
0.1264283
0.13332832
0.21869376
0.12006816
0.13016001
0.13692496
0.23356402
0.10588985
0.11721384
0.12937944
0.14246139
0.12619381
0.13894177
0.15265543
0.16741828
0.13869293
0.15225476
0.16683774
0.1825214
0.14707428
0.16119711
0.17639012
0.19270976
0.20630143
0.23984508
0.27790031
0.32124542
0.24132603
0.27905773
0.32164509
0.36976374
0.26233343
0.30230042
0.34730152
0.39800836
0.27655282
0.31810949
0.36486524
0.41751098
0.30109158
0.33213594
0.36637067
0.40684174
0.34467909
0.37839124
0.41509567
0.44227975
0.37002194
0.40537992
0.44380683
0.4698234
0.38768368
0.42435011
0.46417871
0.49112719
0.60240316
0.45732854
0.45663776
0.45748413
0.57683407
0.35688249
0.33440987
0.31621852
0.59736825
0.35042435
0.32231415
0.29860763
0.61729935
0.35332334
0.32185729
0.29480291
0.45948033
0.46230448
0.46569977
0.46946985
0.30188893
0.29103426
0.2833108
0.27843328
0.27905542
0.26345052
0.25162898
0.24347014
0.27199305
0.25333088
0.23878873
0.22839938
0.47347439
0.47762403
0.48187803
0.48624478
0.27618983
0.27645312
0.27919466
0.28448832
0.23890211
0.2379036
0.240511
0.24682071
0.22224113
0.22041745
0.22303911
0.23021216
0.49078221
0.49560439
0.50088741
0.50688078
0.29252037
0.3035873
0.31809647
0.33656214
0.2569959
0.27126764
0.28993935
0.31338842
0.2420454
0.25866715
0.28025076
0.30704133
0.51391813
0.52243006
0.53295259
0.70718083
0.35959836
0.3879149
0.42230919
0.68654889
0.34207185
0.37652898
0.41739051
0.71506133
0.33937536
0.37769493
0.42255997
0.74118061
0.46507045
0.45153837
0.41246612
0.37679766
0.48695732
0.51286086
0.47104541
0.43234277
0.52409067
0.54936038
0.50555745
0.46493707
0.55088136
0.57539501
0.52994688
0.48777784
0.40700729
0.35560551
0.30994189
0.26910666
0.46954939
0.4124548
0.36130439
0.31532226
0.50626933
0.44605215
0.39195573
0.34320369
0.53175663
0.46916507
0.41289097
0.36213198
0.18559521
0.16976038
0.15493338
0.14111117
0.21837408
0.20049866
0.18375927
0.16816622
0.2383207
0.21931004
0.20149571
0.18489565
0.25181287
0.2319931
0.21341618
0.19611133
0.16920138
0.13570287
0.11412265
0.11354418
0.20368961
0.16645134
0.13205111
0.1185026
0.22510159
0.18553112
0.14916777
0.12322889
0.23934632
0.19808818
0.16022519
0.12763662
0.13145399
0.12829675
0.12443171
0.11997674
0.13783228
0.13493095
0.1311409
0.12662671
0.14374282
0.14098642
0.13722694
0.13264911
0.14914933
0.1464627
0.14270261
0.13805832
0.11007432
0.10540529
0.10037217
0.095062834
0.11626959
0.11140912
0.10613056
0.10055369
0.12188216
0.11685444
0.11136651
0.10555436
0.12692048
0.1217524
0.11608052
0.1100672
0.082523584
0.077843544
0.072764084
0.067326848
0.087289311
0.082354248
0.076986571
0.071239219
0.091638755
0.086478323
0.080850989
0.074826367
0.095566633
0.090211771
0.08435302
0.078081923
0.057407916
0.052111835
0.046082649
0.039376373
0.060729417
0.055126214
0.048734689
0.041653091
0.063774698
0.05789124
0.051167488
0.043743977
0.066537781
0.060402379
0.053375058
0.045644694
0.020406789
0.01854821
0.015682664
0.012791739
0.021482061
0.019567013
0.016516567
0.013493652
0.022448268
0.020495483
0.017267277
0.014131974
0.023308346
0.021327774
0.017937382
0.014706146
0.01105657
0.019154403
0.02474119
0.029299053
0.011320455
0.019613758
0.025332299
0.029998725
0.011550336
0.020011851
0.025846404
0.030605423
0.011750101
0.020355959
0.026292696
0.031130522
0.065108592
0.081725081
0.09590533
0.10855676
0.066656943
0.083647627
0.098126527
0.11101524
0.067999588
0.085313141
0.10004505
0.11313512
0.069162864
0.086752263
0.10170063
0.11495991
0.12320617
0.13341674
0.14012535
0.24445104
0.12591609
0.13623001
0.14464798
0.25318914
0.12824568
0.13864758
0.14988097
0.26068599
0.13024421
0.14071515
0.1545501
0.26738431
0.15331889
0.16789036
0.18356531
0.2004065
0.15839963
0.173363
0.18945211
0.20674274
0.16279353
0.17809929
0.19456145
0.21224966
0.16672696
0.18234117
0.1991375
0.21718779
0.28735543
0.3302155
0.3784296
0.43270512
0.2962869
0.34028701
0.38978009
0.44549071
0.30407341
0.3490919
0.39973261
0.45673869
0.31105772
0.35700217
0.40868441
0.46686575
0.40155241
0.43934055
0.48038235
0.50888598
0.41328214
0.45206507
0.49418815
0.52437597
0.42362504
0.46330804
0.50640928
0.53823819
0.43294766
0.47345162
0.51744301
0.55082008
0.63603017
0.36009656
0.32654459
0.29743469
0.65341553
0.36819206
0.33321664
0.30274149
0.66947312
0.37648315
0.34043304
0.30895626
0.68427927
0.38449608
0.34756812
0.31528912
0.27263234
0.25209657
0.23587741
0.22410601
0.27664726
0.2549183
0.23764706
0.22502041
0.28193926
0.25937987
0.24139432
0.2281997
0.28754919
0.26435321
0.24583237
0.2322218
0.21696759
0.21465914
0.21734778
0.22514528
0.21728733
0.21470254
0.21747035
0.22570348
0.220082
0.21733541
0.22017564
0.22872754
0.22383179
0.22097453
0.22388305
0.23268508
0.23811167
0.25629463
0.27977786
0.30872343
0.2394339
0.25866089
0.28341551
0.31381828
0.24300436
0.26297701
0.2886518
0.3201265
0.24738087
0.26793365
0.29433021
0.32666171
0.34340457
0.3842224
0.43171536
0.76497791
0.35011257
0.39268617
0.44207544
0.78665592
0.35763445
0.40155936
0.45244407
0.80643398
0.36515546
0.41019816
0.46234006
0.82451342
0.57216413
0.5961153
0.5492384
0.50573225
0.59012779
0.61373752
0.56558521
0.52089105
0.60583997
0.62929399
0.57998996
0.53422176
0.61986968
0.64330473
0.5929492
0.54620672
0.55163344
0.48702896
0.42892846
0.37650173
0.56833104
0.50194692
0.44223777
0.38834637
0.58297694
0.51498867
0.45383326
0.39862582
0.59612647
0.52668068
0.46421211
0.40780879
0.26199041
0.24150551
0.22230577
0.20443063
0.27033821
0.24927053
0.22952782
0.21116129
0.27756137
0.25597145
0.23574288
0.21693854
0.28400729
0.26194281
0.241274
0.22207358
0.24978956
0.20714891
0.16802722
0.13180544
0.25815237
0.21430804
0.17407661
0.1368625
0.26528458
0.22036447
0.17913344
0.14101893
0.27160577
0.22571167
0.18357343
0.14464169
0.15402757
0.15137316
0.14759847
0.14289221
0.15839757
0.15575912
0.15196843
0.14720852
0.16230621
0.15967811
0.15587522
0.15107036
0.16580712
0.16319015
0.15937792
0.15453871
0.13142604
0.12613494
0.12030701
0.11412041
0.13545197
0.13005556
0.12409259
0.1177578
0.13905608
0.13357101
0.12749108
0.12102686
0.14229417
0.13673429
0.13055184
0.12397563
0.099097748
0.093572305
0.087509274
0.081019524
0.10226805
0.096593999
0.090350674
0.08366634
0.10511978
0.099315449
0.092910996
0.086052397
0.10769176
0.10177259
0.095224858
0.088211612
0.069031416
0.062669455
0.055367047
0.04736219
0.071277146
0.064711999
0.057160682
0.048911142
0.073302922
0.066554165
0.058776479
0.05030831
0.075132585
0.068218824
0.060236018
0.051571942
0.024066555
0.022072355
0.018528349
0.015218509
0.024731523
0.022735333
0.019050723
0.015673929
0.025316149
0.023325491
0.019510752
0.016079538
0.0258311
0.023850895
0.019916469
0.016442677
0.011922797
0.02065518
0.02667643
0.031587377
0.012071957
0.020912912
0.027010637
0.031979375
0.0122009
0.021135858
0.027297755
0.032319491
0.012311693
0.021327376
0.027545978
0.032612046
0.070167781
0.087995686
0.1031271
0.11652778
0.071036917
0.089067888
0.1043542
0.11787364
0.071786078
0.089990475
0.10540953
0.11902493
0.072430341
0.090783936
0.10631233
0.12000815
0.13195678
0.14247981
0.15884395
0.27350085
0.13342048
0.14397903
0.16284906
0.27914416
0.13466827
0.14524904
0.16660671
0.28437648
0.1357275
0.14631835
0.1701377
0.28923806
0.17030854
0.18620643
0.20330672
0.22168523
0.1736028
0.18975945
0.20713568
0.2258117
0.17664845
0.1930334
0.21066546
0.22961306
0.17946225
0.19606134
0.21392308
0.23312117
0.31741869
0.36420559
0.41683827
0.47609209
0.3232554
0.37080869
0.42431193
0.48454691
0.32862582
0.37688324
0.43118021
0.49231239
0.33357566
0.3824753
0.43750047
0.49945452
0.44144457
0.48269839
0.52750227
0.56233118
0.44922787
0.49116889
0.53671736
0.57290972
0.45637767
0.4989438
0.54517796
0.58265387
0.46294717
0.50609099
0.55294991
0.59164195
0.69792422
0.39204989
0.35436531
0.32140471
0.71049775
0.39909008
0.36073361
0.3271717
0.72208583
0.40561479
0.36665448
0.33255171
0.7327646
0.41164616
0.3721361
0.33754363
0.29305792
0.26933702
0.25038061
0.23643642
0.2982954
0.27411819
0.2547853
0.24055986
0.30319892
0.27861571
0.25895015
0.24447154
0.3077596
0.28280658
0.26284012
0.24813475
0.22783352
0.22489036
0.22786311
0.2368688
0.2317717
0.22876302
0.23178904
0.24097094
0.23552539
0.2324557
0.23552732
0.24486992
0.23904299
0.23592014
0.23903383
0.24851224
0.25191159
0.272943
0.29994761
0.33300314
0.25631392
0.277763
0.30529347
0.33898646
0.26047479
0.28229543
0.31029592
0.34456262
0.26436141
0.286512
0.31493977
0.34972503
0.37234196
0.4183527
0.47159509
0.84106837
0.37907346
0.42594572
0.48017285
0.8562486
0.38532035
0.43297186
0.48809145
0.87017954
0.39109493
0.43945525
0.49538766
0.88297406
0.63254606
0.65604854
0.60474034
0.55710143
0.64407955
0.66770811
0.6155187
0.56706517
0.65461655
0.67839625
0.62540368
0.57620449
0.66426221
0.68820785
0.63447969
0.58459345
0.60807806
0.53730226
0.47363219
0.41614227
0.61900645
0.54701356
0.4822474
0.42375861
0.62902844
0.55592229
0.49015153
0.4307486
0.63823391
0.56410621
0.49741663
0.43717593
0.28984811
0.2673592
0.24628496
0.22672677
0.29519649
0.27230642
0.2508672
0.23098466
0.300109
0.27684675
0.25507754
0.23489778
0.30462063
0.28103191
0.25895214
0.23849672
0.27732484
0.23054581
0.18758341
0.14790683
0.28255581
0.23496984
0.19125472
0.1509027
0.28736395
0.23904156
0.1946398
0.15367291
0.29179565
0.24279831
0.19776875
0.15624152
0.16895265
0.16634681
0.16253127
0.15766446
0.171787
0.16919481
0.16538024
0.16049244
0.17434831
0.17177099
0.1679614
0.16305894
0.17666733
0.17410726
0.17030554
0.16539315
0.14521587
0.13959139
0.13331901
0.12664511
0.14786132
0.14218093
0.1358303
0.12906999
0.15026401
0.144536
0.13811562
0.13127937
0.15245147
0.14668248
0.14020086
0.13329711
0.11002012
0.10399943
0.097323253
0.090170684
0.1121364
0.10602395
0.09923089
0.091954788
0.11406398
0.10787107
0.10097308
0.093580807
0.11582539
0.10955917
0.10256434
0.095071462
0.076790201
0.069729111
0.061558469
0.052717912
0.078298658
0.071103532
0.062759579
0.05376109
0.079676144
0.072355881
0.063854998
0.054713038
0.080933603
0.0735028
0.064855113
0.055583903
0.026283646
0.024324076
0.020273869
0.01676653
0.026684328
0.024746081
0.020593664
0.017057208
0.027038998
0.025128157
0.020875722
0.017320182
0.027354108
0.025472083
0.021129871
0.017555875
0.012406696
0.021492802
0.027758835
0.032861992
0.012488159
0.021634131
0.027940503
0.033076912
0.012557453
0.021755154
0.028094392
0.033260537
0.012616496
0.021856501
0.02822637
0.033415433
0.072983872
0.091461908
0.10708392
0.12084357
0.073456145
0.092041639
0.10773862
0.12154922
0.073858217
0.092531847
0.10829306
0.1221425
0.074197797
0.092946449
0.10875697
0.12263755
0.13662101
0.14721429
0.17345704
0.29375623
0.13737314
0.14795767
0.17657445
0.29795251
0.13799798
0.14856831
0.17949622
0.30184933
0.13851401
0.14906442
0.18223209
0.30546293
0.18206609
0.1988606
0.21693101
0.23635708
0.1844748
0.20144766
0.21970927
0.23934354
0.1867033
0.20383406
0.2222758
0.24209555
0.18875968
0.20604271
0.22463688
0.24463753
0.33813991
0.3876269
0.44331632
0.50602456
0.34234638
0.39237187
0.44866962
0.51206499
0.34622414
0.39673892
0.45359304
0.51761979
0.34979207
0.40075718
0.45811972
0.52272182
0.46898897
0.51265816
0.56009171
0.59993664
0.47454209
0.51869577
0.56665215
0.6075932
0.47964529
0.52423961
0.57267786
0.61465843
0.48433284
0.52932899
0.57820877
0.62117535
0.74260323
0.41721643
0.37720235
0.34216267
0.75166609
0.42235221
0.38188129
0.34642782
0.76001117
0.42708739
0.38619391
0.3503679
0.76769105
0.43144788
0.39017114
0.35399865
0.31198348
0.28669642
0.26645312
0.25154048
0.31589193
0.2902943
0.26979978
0.25469654
0.31949895
0.29362144
0.27289159
0.2576147
0.32282812
0.29668894
0.2757502
0.26031104
0.24231701
0.23914183
0.24229334
0.25189937
0.24535013
0.2421275
0.24531282
0.25503486
0.24815452
0.24489222
0.24810138
0.25793109
0.25074655
0.24743959
0.25067908
0.26060064
0.26796222
0.29041816
0.31923547
0.35449192
0.27129297
0.29402711
0.32319785
0.35888728
0.27436747
0.29735339
0.32685177
0.36293555
0.27720263
0.30041887
0.33021561
0.36666079
0.39642125
0.44542841
0.50210564
0.89472644
0.40132709
0.4509296
0.50828677
0.90552216
0.40584392
0.45598932
0.51397384
0.91543646
0.41000078
0.46064401
0.51920063
0.92453882
0.67310491
0.69721751
0.64281524
0.59230273
0.68121637
0.70549144
0.65047262
0.59938344
0.68865769
0.71308696
0.65750422
0.60588438
0.69548284
0.72005796
0.66395502
0.61185525
0.64669221
0.57162827
0.50409637
0.44308798
0.65446459
0.57854311
0.51023962
0.44852848
0.66160586
0.5848996
0.51588413
0.45353313
0.66816228
0.5907352
0.52107422
0.45813155
0.3087782
0.28487817
0.26252634
0.24181397
0.31259705
0.28843015
0.26580547
0.2448767
0.31611671
0.29169063
0.26883306
0.2476965
0.31935385
0.29468601
0.27162304
0.2502891
0.2958805
0.24626565
0.20066438
0.15862655
0.29964686
0.24947093
0.2033416
0.16083866
0.30311704
0.25242758
0.20581732
0.16289021
0.30631664
0.25515485
0.20810237
0.16479036
0.17877099
0.1762288
0.17243835
0.16751991
0.18068068
0.17815833
0.17438059
0.16946043
0.18241625
0.17991342
0.17615108
0.17123158
0.18399329
0.18151098
0.17776472
0.17284939
0.15444657
0.14864345
0.14210552
0.13514416
0.15626813
0.15043511
0.14385035
0.13683445
0.15793317
0.15207399
0.14544675
0.13838539
0.15945382
0.15357482
0.14690948
0.13980618
0.11743627
0.11110458
0.10402417
0.096436354
0.11891263
0.11252291
0.1053617
0.097688221
0.12026556
0.11382332
0.10658969
0.098839378
0.12150682
0.11501697
0.10771706
0.099895467
0.082087096
0.074551449
0.06577113
0.056381571
0.083144097
0.075514851
0.066611257
0.057113067
0.084113684
0.076398571
0.067381253
0.057784931
0.085005465
0.077209759
0.068087204
0.058401972
0.027635732
0.02578392
0.021355039
0.017770504
0.027884978
0.026067105
0.021557357
0.017964453
0.028108157
0.026323854
0.021737791
0.018140556
0.028307676
0.026556305
0.021900101
0.018300492
0.012666353
0.021942265
0.028336639
0.033545797
0.012707935
0.022013841
0.028428964
0.033654728
0.012742128
0.022073378
0.028506314
0.033743731
0.012770398
0.022122339
0.028567663
0.03381875
0.074483724
0.093293182
0.10914418
0.12304559
0.074721916
0.093580705
0.10946268
0.12337962
0.074918895
0.093817544
0.10972315
0.12364782
0.0750796
0.09400971
0.10993231
0.12386028
0.13893448
0.14945969
0.1847886
0.30881085
0.13927335
0.14976924
0.18717327
0.31190838
0.13953954
0.15000607
0.18939377
0.31477058
0.13974574
0.15017898
0.19145589
0.31741034
0.19066054
0.20807592
0.22681618
0.24697337
0.19241228
0.20994793
0.22882391
0.24912265
0.1940251
0.21167131
0.23066889
0.25109682
0.19550562
0.21325813
0.23235874
0.25291119
0.35307715
0.40445071
0.46227844
0.527406
0.35609613
0.40784314
0.46609425
0.53170312
0.35886771
0.41095484
0.46959274
0.53563946
0.36140867
0.41380437
0.47279598
0.53924075
0.48863289
0.53400031
0.58328021
0.62718251
0.49257534
0.53828155
0.58792683
0.63271317
0.49618762
0.54219989
0.59218165
0.6378028
0.49949081
0.54578247
0.5960725
0.64247772
0.77475328
0.43546189
0.39383127
0.35734523
0.78124247
0.43915316
0.39720008
0.3604246
0.787197
0.44254306
0.40029419
0.36325716
0.7926554
0.44565148
0.40313607
0.36585498
0.32589748
0.29951848
0.27838434
0.26279621
0.32872236
0.30212605
0.28081315
0.26508754
0.33131992
0.30452384
0.2830467
0.26719612
0.3337066
0.30672967
0.28509634
0.26913581
0.25313811
0.24979179
0.2530542
0.26306052
0.2553406
0.25195776
0.2552411
0.2653258
0.25736856
0.25395102
0.25725124
0.2674104
0.25922952
0.2557842
0.25909832
0.26932168
0.27981421
0.3032421
0.333308
0.37009039
0.28221589
0.30583642
0.33615325
0.37323767
0.28442093
0.30822222
0.33876411
0.37612667
0.28644791
0.31040725
0.34115741
0.37877604
0.41381858
0.46492096
0.52400196
0.93289018
0.41732679
0.46884893
0.5284096
0.94054597
0.42054754
0.47244778
0.53245085
0.94755667
0.42349438
0.47574822
0.53615115
0.95396865
0.70173961
0.72644969
0.66987278
0.61733064
0.70747189
0.73230553
0.67529631
0.62234924
0.71271903
0.7376664
0.68025873
0.62694493
0.71751593
0.74256697
0.68479611
0.63114558
0.67417762
0.59609411
0.52583734
0.46235438
0.67969347
0.60100539
0.53020917
0.46623084
0.68474375
0.60550447
0.5342145
0.46978471
0.68936258
0.60962256
0.53787877
0.47303488
0.32233147
0.29744465
0.27417822
0.25268305
0.3250577
0.29997895
0.2765366
0.25487168
0.32755934
0.30230789
0.27868365
0.25689492
0.32985724
0.30442844
0.28066654
0.25873724
0.30925798
0.25766597
0.21021331
0.16654725
0.3119637
0.25997659
0.21216127
0.16816905
0.3144471
0.26210361
0.21394632
0.16966941
0.31672658
0.26405451
0.21559202
0.17104541
0.18542581
0.18296524
0.17923605
0.17432564
0.18672777
0.18428781
0.18057642
0.17567391
0.18791035
0.18548961
0.18179751
0.17690306
0.18898158
0.18658161
0.18290825
0.17802294
0.16084499
0.15494694
0.14824881
0.14110992
0.16211473
0.1562026
0.14947472
0.14230384
0.16327423
0.15734997
0.15059626
0.14339705
0.16433153
0.15839687
0.1516215
0.14439697
0.12264351
0.11611261
0.10875152
0.10086672
0.12368692
0.11711581
0.10970211
0.10175675
0.12464178
0.11803607
0.11057221
0.10257416
0.12551424
0.11887939
0.11136869
0.10332237
0.085822569
0.077954382
0.068734945
0.058968277
0.08657287
0.07863687
0.069329863
0.059487932
0.087260209
0.07926425
0.069873293
0.059965192
0.087889995
0.079837677
0.070370968
0.060401857
0.028486658
0.026766534
0.022046289
0.018446044
0.028645616
0.026957896
0.022177418
0.018576615
0.028786174
0.02713299
0.022292892
0.018697374
0.02891222
0.02729143
0.022397273