/*--------------------------------*- C++ -*----------------------------------*\
| =========                 |                                                 |
| \\      /  F ield         | OpenFOAM: The Open Source CFD Toolbox           |
|  \\    /   O peration     | Version:  1.4.1-dev                             |
|   \\  /    A nd           | Web:      http://www.openfoam.org               |
|    \\/     M anipulation  |                                                 |
\*---------------------------------------------------------------------------*/

FoamFile
{
    version 2.0;
    format ascii;

    root "/home/cliffoi/OpenFOAM/cliffoi-1.4.1-dev/run/diffusionFoam";
    case "oecd_simplified_2G";
    instance "0";
    local "";

    class volScalarField;
    object Leakage1;
}

// * * * * * * * * * * * * * * * * * * * * * * * * * * * * * * * * * * * * * //

dimensions      [0 -3 -1 0 0 0 0];

internalField   nonuniform List<scalar> 
9280
(
1.9766101e+11
1.989282e+11
2.0172147e+11
2.0598082e+11
6.293591e+11
6.336639e+11
6.4315646e+11
6.5764072e+11
1.4718931e+12
1.4829463e+12
1.5073346e+12
1.5445862e+12
3.2198023e+12
3.2466571e+12
3.3059518e+12
3.3966386e+12
2.1848774e+11
2.5032182e+11
2.9800322e+11
3.6285227e+11
7.002119e+11
8.0899986e+11
9.730112e+11
1.197947e+12
1.6542338e+12
1.9361484e+12
2.3654584e+12
2.9618328e+12
3.6640556e+12
4.3568594e+12
5.4251257e+12
6.9328584e+12
4.4842378e+11
5.5727669e+11
6.8709273e+11
8.356889e+11
1.4976325e+12
1.8830373e+12
2.3478354e+12
2.885722e+12
3.7681697e+12
4.8225418e+12
6.115951e+12
7.6378e+12
9.0089131e+12
1.178013e+13
1.5252282e+13
1.9423018e+13
9.3318246e+11
9.6864434e+11
1.0044898e+12
1.0406403e+12
3.2422568e+12
3.3721897e+12
3.5037854e+12
3.636751e+12
8.6621847e+12
9.0366428e+12
9.4169787e+12
9.8023527e+12
2.2284846e+13
2.3334808e+13
2.4405098e+13
2.5493325e+13
1.0888152e+12
1.1488588e+12
1.2087845e+12
1.2681594e+12
3.8142609e+12
4.0361501e+12
4.2582031e+12
4.4787785e+12
1.031824e+13
1.096584e+13
1.1616514e+13
1.2265263e+13
2.6954947e+13
2.8799338e+13
3.0661424e+13
3.2526236e+13
1.3173182e+12
1.3567676e+12
1.3954126e+12
1.4331041e+12
4.6618453e+12
4.8089772e+12
4.9533287e+12
5.0943222e+12
1.2805541e+13
1.3240738e+13
1.3668605e+13
1.408735e+13
3.408552e+13
3.5344697e+13
3.6585577e+13
3.7802665e+13
1.4909816e+12
1.5635413e+12
1.628552e+12
1.6847524e+12
5.3111272e+12
5.58374e+12
5.8287199e+12
6.0412126e+12
1.4732481e+13
1.5546808e+13
1.6281364e+13
1.6921135e+13
3.9681546e+13
4.2062542e+13
4.4217982e+13
4.6102191e+13
1.7310393e+12
1.766498e+12
1.7904238e+12
1.8023371e+12
6.2169828e+12
6.3525321e+12
6.445176e+12
6.4930937e+12
1.7453111e+13
1.786664e+13
1.8153628e+13
1.8308645e+13
4.7676082e+13
4.8908151e+13
4.9774935e+13
5.0261059e+13
1.80199e+12
1.7893689e+12
1.7646901e+12
1.7283919e+12
6.4953461e+12
6.4518711e+12
6.3634662e+12
6.2317546e+12
1.832892e+13
1.8214289e+13
1.7967098e+13
1.7592089e+13
5.0358985e+13
5.0068609e+13
4.9396818e+13
4.8357099e+13
1.6811231e+12
1.6237284e+12
1.5572286e+12
1.4827986e+12
6.0591444e+12
5.8487741e+12
5.6044521e+12
5.3305758e+12
1.7096288e+13
1.6488871e+13
1.5781019e+13
1.498573e+13
4.6969226e+13
4.5259016e+13
4.3258106e+13
4.1003622e+13
1.4017388e+12
1.3154438e+12
1.2253657e+12
1.1329747e+12
5.0320359e+12
4.7140998e+12
4.3822745e+12
4.0421537e+12
1.4117573e+13
1.319237e+13
1.2226786e+13
1.1237857e+13
3.853769e+13
3.5906659e+13
3.3159969e+13
3.0348678e+13
1.0648131e+12
1.0215081e+12
9.7836829e+11
9.3552431e+11
3.7915493e+12
3.6324234e+12
3.4740503e+12
3.3169149e+12
1.0510342e+13
1.0048914e+13
9.5902048e+12
9.1357224e+12
2.8284034e+13
2.6975975e+13
2.5677466e+13
2.4393021e+13
8.831243e+11
8.2204246e+11
7.6251012e+11
7.0482465e+11
3.1249317e+12
2.901563e+12
2.6843075e+12
2.4742824e+12
8.5813417e+12
7.9380374e+12
7.3142767e+12
6.7133723e+12
2.2829196e+13
2.1020411e+13
1.9273168e+13
1.759716e+13
6.6054326e+11
6.2829089e+11
5.9688323e+11
5.6635777e+11
2.3134933e+12
2.1965479e+12
2.0828731e+12
1.9725903e+12
6.2550942e+12
5.9226392e+12
5.6003074e+12
5.2884471e+12
1.6325094e+13
1.5405074e+13
1.4515968e+13
1.3658657e+13
5.2231165e+11
4.676317e+11
4.1675897e+11
3.6974062e+11
1.813748e+12
1.6173561e+12
1.4354024e+12
1.267985e+12
4.8405606e+12
4.2900681e+12
3.7833064e+12
3.3201811e+12
1.2431754e+13
1.0934985e+13
9.5680212e+12
8.3292226e+12
3.1857885e+11
2.6655603e+11
2.2122499e+11
1.821284e+11
1.086666e+12
9.0354538e+11
7.4510979e+11
6.0947169e+11
2.8221633e+12
2.3243192e+12
1.898186e+12
1.5374139e+12
7.0087711e+12
5.7053365e+12
4.6042228e+12
3.6845683e+12
1.5017284e+11
1.2393468e+11
1.0152498e+11
8.2483986e+10
4.994537e+11
4.0976692e+11
3.3372958e+11
2.6960837e+11
1.2481317e+12
1.0148423e+12
8.1922963e+11
6.5612363e+11
2.9573452e+12
2.3784564e+12
1.8994392e+12
1.505362e+12
6.760304e+10
5.5761914e+10
4.5487291e+10
3.6546758e+10
2.1988262e+11
1.8057707e+11
1.4670235e+11
1.1742667e+11
5.310848e+11
4.3323286e+11
3.4975274e+11
2.7834206e+11
1.2073655e+12
9.7690429e+11
7.8264003e+11
6.1846672e+11
2.9240286e+10
2.3145077e+10
1.762047e+10
1.2546922e+10
9.3663728e+10
7.3951968e+10
5.618087e+10
3.9937659e+10
2.2096589e+11
1.7378164e+11
1.3158687e+11
9.3297999e+10
4.8814733e+11
3.8207496e+11
2.8814087e+11
2.0364561e+11
9.234366e+09
7.3822995e+09
5.5644621e+09
3.7747619e+09
2.9376308e+10
2.3473394e+10
1.7688357e+10
1.1997225e+10
6.8545428e+10
5.4742168e+10
4.1232709e+10
2.795892e+10
1.4941612e+11
1.1923942e+11
8.9764479e+10
6.0846502e+10
6.797768e+12
6.8609679e+12
7.0006314e+12
7.2145641e+12
1.3873572e+13
1.4017442e+13
1.4335686e+13
1.4824024e+13
2.7250833e+13
2.7565667e+13
2.8262857e+13
2.9334831e+13
5.1192258e+13
5.1849123e+13
5.3305559e+13
5.5549966e+13
7.846764e+12
9.4992883e+12
1.2084903e+13
1.5802732e+13
1.6270726e+13
2.0091264e+13
2.6170354e+13
3.5100702e+13
3.2519583e+13
4.1028333e+13
5.4827649e+13
7.5599256e+13
6.2239127e+13
8.034295e+13
1.1033341e+14
1.5672487e+14
2.1032681e+13
2.8185552e+13
3.7375493e+13
4.8690991e+13
4.7977953e+13
6.6095219e+13
9.0071216e+13
1.204793e+14
1.0641195e+14
1.5120508e+14
2.1258338e+14
2.9324508e+14
2.2777999e+14
3.350186e+14
4.8807503e+14
6.9801278e+14
5.6636917e+13
5.9565199e+13
6.2563044e+13
6.5623835e+13
1.4244006e+14
1.5057719e+14
1.589517e+14
1.6754556e+14
3.5354577e+14
3.7604175e+14
3.9934753e+14
4.2341758e+14
8.6185963e+14
9.2352251e+14
9.8795616e+14
1.0550615e+15
6.9751281e+13
7.4992025e+13
8.031321e+13
8.5669597e+13
1.7919108e+14
1.9408974e+14
2.0932127e+14
2.2474741e+14
4.5623628e+14
4.9862509e+14
5.4233623e+14
5.869425e+14
1.1472997e+15
1.2679436e+15
1.3937782e+15
1.5234767e+15
9.0168885e+13
9.3812415e+13
9.7412077e+13
1.0095075e+14
2.377739e+14
2.4835594e+14
2.5883933e+14
2.6916933e+14
6.2485231e+14
6.5576163e+14
6.8647708e+14
7.1681801e+14
1.6346228e+15
1.7256612e+15
1.8164596e+15
1.9063929e+15
1.0642467e+14
1.1338659e+14
1.1970711e+14
1.2524666e+14
2.8518036e+14
3.0560571e+14
3.24181e+14
3.4047627e+14
7.6393326e+14
8.2416421e+14
8.7893185e+14
9.2689788e+14
2.0462874e+15
2.2252061e+15
2.387369e+15
2.5285737e+15
1.2988831e+14
1.3354042e+14
1.3613714e+14
1.3763737e+14
3.5414369e+14
3.6492341e+14
3.7264057e+14
3.7719667e+14
9.6704147e+14
9.9866192e+14
1.0213459e+15
1.0349152e+15
2.6459296e+15
2.7377564e+15
2.8033525e+15
2.8427167e+15
1.3802284e+14
1.3729585e+14
1.3547731e+14
1.3260526e+14
3.785585e+14
3.7674702e+14
3.7182861e+14
3.6390981e+14
1.0393703e+15
1.0348409e+15
1.0215485e+15
9.9978825e+14
2.8562894e+15
2.8447465e+15
2.8088593e+15
2.7494315e+15
1.2873415e+14
1.2393468e+14
1.1829401e+14
1.1191594e+14
3.5313565e+14
3.3969179e+14
3.2380866e+14
3.0576665e+14
9.6992606e+14
9.3241391e+14
8.8781637e+14
8.3684462e+14
2.6673033e+15
2.5634214e+15
2.4389655e+15
2.295515e+15
1.0492045e+14
9.7442292e+13
8.9628089e+13
8.1631837e+13
2.8589975e+14
2.6459554e+14
2.4228923e+14
2.194504e+14
7.8038864e+14
7.1953859e+14
6.555829e+14
5.8997416e+14
2.135235e+15
1.9610407e+15
1.7766918e+15
1.5867496e+15
7.5768263e+13
7.2057891e+13
6.8380128e+13
6.4748894e+13
2.0272263e+14
1.9215026e+14
1.8168795e+14
1.7137929e+14
5.4194417e+14
5.1162332e+14
4.8167147e+14
4.5223032e+14
1.4475861e+15
1.3598274e+15
1.2733106e+15
1.1885195e+15
6.0337382e+13
5.5254052e+13
5.0365569e+13
4.5700411e+13
1.5888694e+14
1.4455668e+14
1.3084997e+14
1.1785122e+14
4.1666022e+14
3.7608334e+14
3.3753532e+14
3.012676e+14
1.0864737e+15
9.7091441e+14
8.6212375e+14
7.6084492e+14
4.2179983e+13
3.9643278e+13
3.7201349e+13
3.4856374e+13
1.0811122e+14
1.0112471e+14
9.4431312e+13
8.803577e+13
2.7433481e+14
2.5512626e+14
2.3683419e+14
2.1946564e+14
6.8651937e+14
6.3390782e+14
5.8419746e+14
5.3737844e+14
3.1514778e+13
2.7474499e+13
2.3819637e+13
2.0540541e+13
7.8969583e+13
6.8126446e+13
5.8430051e+13
4.9834675e+13
1.9500421e+14
1.6614079e+14
1.4069209e+14
1.1846025e+14
4.7198863e+14
3.9613701e+14
3.3042568e+14
2.740396e+14
1.7081694e+13
1.3717811e+13
1.0919389e+13
8.6185749e+12
4.0880307e+13
3.2322786e+13
2.5329738e+13
1.9683019e+13
9.5643329e+13
7.4283899e+13
5.7188419e+13
4.3667127e+13
2.1720487e+14
1.6528753e+14
1.2472616e+14
9.3394682e+13
6.8280061e+12
5.4235906e+12
4.2786824e+12
3.3508633e+12
1.5367466e+13
1.2038361e+13
9.369051e+12
7.2414026e+12
3.3542974e+13
2.5876579e+13
1.9841094e+13
1.5116443e+13
7.046868e+13
5.3461303e+13
4.0337036e+13
3.026122e+13
2.6598379e+12
2.1323672e+12
1.6935852e+12
1.3276824e+12
5.6827782e+12
4.5097695e+12
3.5477729e+12
2.7569406e+12
1.1716574e+13
9.1962637e+12
7.160287e+12
5.5116043e+12
2.3146917e+13
1.795644e+13
1.3828938e+13
1.0538375e+13
1.0410758e+12
8.1043691e+11
6.0839278e+11
4.2842149e+11
2.146263e+12
1.6608025e+12
1.2404696e+12
8.700127e+11
4.2574466e+12
3.2731927e+12
2.4314377e+12
1.6978893e+12
8.0736351e+12
6.1648004e+12
4.5530077e+12
3.1647672e+12
3.1384161e+11
2.5025369e+11
1.882768e+11
1.2757448e+11
6.3623449e+11
5.0686366e+11
3.8107492e+11
2.5810318e+11
1.2393313e+12
9.863563e+11
7.4102101e+11
5.0166637e+11
2.3054687e+12
1.8329558e+12
1.3759625e+12
9.310646e+11
9.1298376e+13
9.2592207e+13
9.5464879e+13
9.990258e+13
1.5335063e+14
1.5572945e+14
1.6101852e+14
1.6920992e+14
2.4069962e+14
2.4473295e+14
2.5371285e+14
2.6765444e+14
3.509057e+14
3.5714419e+14
3.7104953e+14
3.9268249e+14
1.1317433e+14
1.4959815e+14
2.1134189e+14
3.097364e+14
1.9379579e+14
2.6224957e+14
3.8109332e+14
5.764795e+14
3.0964398e+14
4.2817736e+14
6.3875935e+14
9.9567396e+14
4.5802678e+14
6.4463158e+14
9.8265636e+14
1.5707162e+15
4.6586561e+14
7.1164204e+14
1.0793411e+15
1.6102053e+15
8.9840713e+14
1.4289688e+15
2.2659209e+15
3.549197e+15
1.6062376e+15
2.6609154e+15
4.421313e+15
7.3087614e+15
2.6103536e+15
4.4842395e+15
7.7839021e+15
1.3575423e+16
2.047493e+15
2.2139816e+15
2.3899605e+15
2.5753188e+15
4.67962e+15
5.1167788e+15
5.5861546e+15
6.0883476e+15
1.0065227e+16
1.11537e+16
1.2347487e+16
1.3652636e+16
1.9607976e+16
2.2052842e+16
2.4807002e+16
2.7902981e+16
2.832925e+15
3.1757775e+15
3.5391527e+15
3.9190235e+15
6.7972053e+15
7.7645652e+15
8.8145742e+15
9.9365186e+15
1.5535737e+16
1.820119e+16
2.1203078e+16
2.4529485e+16
3.25017e+16
3.9347929e+16
4.7496409e+16
5.708898e+16
4.2484108e+15
4.5199283e+15
4.7920447e+15
5.0624329e+15
1.0927873e+16
1.1753556e+16
1.2587557e+16
1.3420246e+16
2.7571428e+16
3.0158075e+16
3.2816045e+16
3.5501144e+16
6.6457545e+16
7.4812835e+16
8.3827036e+16
9.3378934e+16
5.4836637e+15
6.020977e+15
6.50367e+15
6.9186586e+15
1.4719229e+16
1.6359951e+16
1.7804261e+16
1.9015387e+16
3.9705064e+16
4.4838972e+16
4.915336e+16
5.2607758e+16
1.0898949e+17
1.2529703e+17
1.3764956e+17
1.468324e+17
7.2586111e+15
7.52081e+15
7.7057192e+15
7.8156463e+15
1.9982023e+16
2.0708916e+16
2.1209169e+16
2.149881e+16
5.5250028e+16
5.7160896e+16
5.8425922e+16
5.9122066e+16
1.5346617e+17
1.5803275e+17
1.6089991e+17
1.6234247e+17
7.8536798e+15
7.8229524e+15
7.7261895e+15
7.5655318e+15
2.1593315e+16
2.1505612e+16
2.1245078e+16
2.0817253e+16
5.9311888e+16
5.904161e+16
5.8340947e+16
5.7223716e+16
1.6255904e+17
1.6168498e+17
1.5980154e+17
1.5694175e+17
7.3425862e+15
7.0586893e+15
6.7153817e+15
6.3150825e+15
2.0224092e+16
1.9464719e+16
1.8536747e+16
1.743836e+16
5.5688809e+16
5.3721452e+16
5.1295115e+16
4.8374871e+16
1.5309337e+17
1.481991e+17
1.4215406e+17
1.348006e+17
5.8619449e+15
5.3628061e+15
4.8280598e+15
4.272103e+15
1.6171388e+16
1.474562e+16
1.3184367e+16
1.1530507e+16
4.4923671e+16
4.0914288e+16
3.6351737e+16
3.1314944e+16
1.2592009e+17
1.1522137e+17
1.0232518e+17
8.6743301e+16
3.863367e+15
3.6058361e+15
3.3525793e+15
3.1053758e+15
1.0302528e+16
9.5293553e+15
8.771951e+15
8.0376235e+15
2.7454943e+16
2.5030314e+16
2.2678814e+16
2.0433627e+16
7.2935452e+16
6.4577279e+16
5.681397e+16
4.9728697e+16
2.8095001e+15
2.4779734e+15
2.1698955e+15
1.8873369e+15
7.1667533e+15
6.2076506e+15
5.3343379e+15
4.5510988e+15
1.7820805e+16
1.5034247e+16
1.2582732e+16
1.0459767e+16
4.184451e+16
3.3949559e+16
2.7397431e+16
2.2018116e+16
1.6833475e+15
1.540421e+15
1.4067922e+15
1.2822845e+15
3.9988569e+15
3.6174515e+15
3.265991e+15
2.9432539e+15
9.0139806e+15
8.0355212e+15
7.1516891e+15
6.3557662e+15
1.8528053e+16
1.6229271e+16
1.4205423e+16
1.2426688e+16
1.1102844e+15
9.1509543e+14
7.4969548e+14
6.1086038e+14
2.5038501e+15
2.0190947e+15
1.6195116e+15
1.2929779e+15
5.292565e+15
4.1605548e+15
3.2580953e+15
2.5433968e+15
1.0104893e+16
7.7318077e+15
5.9080859e+15
4.5108309e+15
4.7393714e+14
3.5241433e+14
2.600747e+14
1.9062252e+14
9.7917966e+14
7.0977364e+14
5.1134729e+14
3.6639309e+14
1.876539e+15
1.3244849e+15
9.3111762e+14
6.5227982e+14
3.2457898e+15
2.2350957e+15
1.537021e+15
1.0556023e+15
1.4107859e+14
1.0513731e+14
7.798976e+13
5.7571597e+13
2.6576613e+14
1.9446251e+14
1.4178374e+14
1.0298184e+14
4.6394202e+14
3.3354534e+14
2.3925105e+14
1.7116182e+14
7.3824322e+14
5.2289936e+14
3.6999494e+14
2.6140591e+14
4.3436453e+13
3.3291234e+13
2.5351956e+13
1.9121445e+13
7.6644976e+13
5.8045844e+13
4.3717004e+13
3.2642135e+13
1.257912e+14
9.4225849e+13
7.025268e+13
5.1976556e+13
1.9014181e+14
1.4116299e+14
1.0439139e+14
7.6665023e+13
1.4526329e+13
1.1014485e+13
8.0867396e+12
5.5945723e+12
2.4594694e+13
1.8521857e+13
1.3520419e+13
9.3107901e+12
3.8871703e+13
2.9093366e+13
2.1126961e+13
1.4488692e+13
5.6992805e+13
4.2444819e+13
3.0693788e+13
2.0979412e+13
4.0672675e+12
3.2302078e+12
2.4228939e+12
1.6386691e+12
6.7555884e+12
5.3596595e+12
4.0169745e+12
2.7154683e+12
1.049371e+13
8.3175062e+12
6.2293884e+12
4.2092048e+12
1.517292e+13
1.2017198e+13
8.995111e+12
6.0758582e+12
4.7427086e+14
4.8302614e+14
5.0255583e+14
5.3297953e+14
5.9721934e+14
6.0843446e+14
6.3345818e+14
6.7246043e+14
7.0894812e+14
7.2230789e+14
7.5211725e+14
7.9857894e+14
8.0473955e+14
8.1986023e+14
8.5359538e+14
9.0616772e+14
6.2505129e+14
8.8995656e+14
1.3758977e+15
2.2357269e+15
7.9057777e+14
1.1313598e+15
1.7592201e+15
2.8760541e+15
9.3928896e+14
1.3452601e+15
2.0930947e+15
3.4225353e+15
1.0653468e+15
1.5241853e+15
2.368078e+15
3.8650527e+15
3.789004e+15
6.6695752e+15
1.1934211e+16
2.1648114e+16
4.905303e+15
8.6914221e+15
1.5648755e+16
2.8532156e+16
5.8349435e+15
1.032515e+16
1.8544056e+16
3.3674064e+16
6.5740076e+15
1.1598478e+16
2.0756338e+16
3.7531652e+16
3.2499769e+16
3.7006587e+16
4.2214695e+16
4.8230931e+16
4.2919613e+16
4.888438e+16
5.5762539e+16
6.3686686e+16
5.0428991e+16
5.7356018e+16
6.5321479e+16
7.4471951e+16
5.6005721e+16
6.3632173e+16
7.2389243e+16
8.2434997e+16
5.7436088e+16
7.1901208e+16
9.0276241e+16
1.1369953e+17
7.5770489e+16
9.4626236e+16
1.1834403e+17
1.4817701e+17
8.8384589e+16
1.0998565e+17
1.3701263e+17
1.7082e+17
9.7687703e+16
1.2131764e+17
1.5082046e+17
1.8765004e+17
1.3895228e+17
1.6346394e+17
1.9270301e+17
2.2768386e+17
1.7977597e+17
2.0997007e+17
2.4532472e+17
2.8670379e+17
2.0642751e+17
2.4032182e+17
2.7986474e+17
3.2599238e+17
2.2636694e+17
2.6317588e+17
3.0607038e+17
3.5605539e+17
-2.4452638e+17
-2.1582665e+17
-1.9441981e+17
-1.7837272e+17
-2.2555761e+17
-1.8890872e+17
-1.6126039e+17
-1.4043072e+17
-2.2512952e+17
-1.8302218e+17
-1.5106409e+17
-1.268817e+17
-2.3252992e+17
-1.8627512e+17
-1.5105798e+17
-1.2433989e+17
-1.6629838e+17
-1.571961e+17
-1.503452e+17
-1.4523249e+17
-1.2479138e+17
-1.1313372e+17
-1.0456907e+17
-9.8454918e+16
-1.0868888e+17
-9.5148242e+16
-8.526792e+16
-7.8325006e+16
-1.0420556e+17
-8.9216396e+16
-7.8302075e+16
-7.0679829e+16
-1.4150301e+17
-1.3892654e+17
-1.373758e+17
-1.3681367e+17
-9.4341593e+16
-9.1934457e+16
-9.1068761e+16
-9.1694331e+16
-7.380987e+16
-7.1386189e+16
-7.0863937e+16
-7.2182934e+16
-6.5795836e+16
-6.3283213e+16
-6.293334e+16
-6.4678385e+16
-1.3728806e+17
-1.3893351e+17
-1.4198016e+17
-1.4677087e+17
-9.3869072e+16
-9.7760355e+16
-1.0365403e+17
-1.119719e+17
-7.540522e+16
-8.0716041e+16
-8.8432448e+16
-9.9020518e+16
-6.8583125e+16
-7.4845565e+16
-8.3805841e+16
-9.5963869e+16
-1.5378893e+17
-1.6370056e+17
-1.7741926e+17
-1.9620441e+17
-1.2329807e+17
-1.3841602e+17
-1.5835749e+17
-1.8446478e+17
-1.1312149e+17
-1.3158823e+17
-1.5553418e+17
-1.863969e+17
-1.1200668e+17
-1.328466e+17
-1.5967276e+17
-1.9401905e+17
1.8084226e+17
1.5068879e+17
1.2582634e+17
1.052686e+17
2.2883941e+17
1.9277586e+17
1.6240782e+17
1.3684776e+17
2.6114054e+17
2.2070354e+17
1.8654013e+17
1.5768194e+17
2.8598631e+17
2.4201155e+17
2.0481937e+17
1.7336628e+17
8.4221978e+16
6.5112472e+16
5.0453325e+16
3.9165877e+16
1.1028544e+17
8.5757666e+16
6.6703844e+16
5.1897869e+16
1.2757908e+17
9.9627498e+16
7.779601e+16
6.0744082e+16
1.4051585e+17
1.0995418e+17
8.6035385e+16
6.7313645e+16
3.2219233e+16
2.7770082e+16
2.3951163e+16
2.0671492e+16
4.272776e+16
3.6837579e+16
3.1770549e+16
2.741184e+16
5.0132345e+16
4.3297597e+16
3.7402784e+16
3.2319576e+16
5.5637702e+16
4.8107705e+16
4.1604754e+16
3.5989793e+16
1.6480428e+16
1.2344777e+16
9.2599788e+15
6.9565117e+15
2.1835405e+16
1.6327939e+16
1.2221286e+16
9.1585284e+15
2.5801134e+16
1.9337655e+16
1.4501514e+16
1.0884016e+16
2.8780064e+16
2.1613553e+16
1.6238652e+16
1.2208997e+16
4.9174828e+15
3.3292742e+15
2.2556963e+15
1.5289031e+15
6.4524285e+15
4.351435e+15
2.9364919e+15
1.9823967e+15
7.6796675e+15
5.1851875e+15
3.5018446e+15
2.3650945e+15
8.6317796e+15
5.8395626e+15
3.9507095e+15
2.6723903e+15
1.0574333e+15
7.4170509e+14
5.2016387e+14
3.6451174e+14
1.3659945e+15
9.5476767e+14
6.6729874e+14
4.6607277e+14
1.6299459e+15
1.1392054e+15
7.9604116e+14
5.5580693e+14
1.8440827e+15
1.290273e+15
9.0245732e+14
6.3062566e+14
2.6335736e+14
1.9437913e+14
1.42976e+14
1.0449132e+14
3.3577425e+14
2.4719469e+14
1.8138502e+14
1.3226349e+14
4.0026626e+14
2.9455011e+14
2.1603528e+14
1.5745616e+14
4.5443528e+14
3.3458485e+14
2.4550686e+14
1.7900319e+14
7.7371847e+13
5.7432645e+13
4.1416823e+13
2.8245787e+13
9.7753091e+13
7.2447068e+13
5.2173717e+13
3.5543033e+13
1.1632336e+14
8.6177436e+13
6.2040883e+13
4.2253074e+13
1.3227902e+14
9.8019787e+13
7.0578948e+13
4.8074451e+13
2.0408585e+13
1.6155723e+13
1.2088248e+13
8.1632179e+12
2.5668942e+13
2.031478e+13
1.5197308e+13
1.0261568e+13
3.0511087e+13
2.414532e+13
1.8061984e+13
1.2195479e+13
3.471669e+13
2.7474293e+13
2.0552693e+13
1.3877399e+13
8.8493145e+14
9.0148176e+14
9.3840274e+14
9.9593007e+14
9.5231435e+14
9.7005049e+14
1.0096148e+15
1.0712526e+15
1.010086e+15
1.028841e+15
1.0706761e+15
1.1358467e+15
1.0608765e+15
1.0805356e+15
1.1243863e+15
1.1926935e+15
1.1700704e+15
1.6715668e+15
2.5925206e+15
4.2230687e+15
1.2578034e+15
1.7946779e+15
2.7795574e+15
4.5210576e+15
1.3330686e+15
1.9004165e+15
2.9405328e+15
4.7783283e+15
1.3993949e+15
1.9938716e+15
3.0833316e+15
5.0075223e+15
7.1671879e+15
1.2613849e+16
2.2513812e+16
4.0596665e+16
7.6611031e+15
1.3461422e+16
2.3988161e+16
4.3187741e+16
8.0893845e+15
1.4200598e+16
2.5282904e+16
4.5481292e+16
8.4727677e+15
1.4865851e+16
2.6454737e+16
4.7568946e+16
6.0454121e+16
6.8646037e+16
7.8046333e+16
8.8823232e+16
6.4243054e+16
7.2926465e+16
8.2887853e+16
9.4304918e+16
6.7617885e+16
7.674597e+16
8.7216067e+16
9.9214682e+16
7.070213e+16
8.0240475e+16
9.1180503e+16
1.0371689e+17
1.0517629e+17
1.3048767e+17
1.6206266e+17
2.0144744e+17
1.1162487e+17
1.3842219e+17
1.7183857e+17
2.1350608e+17
1.1741475e+17
1.4556871e+17
1.8067101e+17
2.2443402e+17
1.2273157e+17
1.5214312e+17
1.8881039e+17
2.3452103e+17
2.4281997e+17
2.8213501e+17
3.2792965e+17
3.8127218e+17
2.5726283e+17
2.9883524e+17
3.4725003e+17
4.0363458e+17
2.7038484e+17
3.1403771e+17
3.6487098e+17
4.2406723e+17
2.8251342e+17
3.2810368e+17
3.8119063e+17
4.4300868e+17
-2.4304069e+17
-1.9335295e+17
-1.5545827e+17
-1.2666661e+17
-2.5454534e+17
-2.0185186e+17
-1.6162588e+17
-1.3103648e+17
-2.6609384e+17
-2.1068206e+17
-1.6835435e+17
-1.3614846e+17
-2.772675e+17
-2.1935487e+17
-1.7509626e+17
-1.4140701e+17
-1.0494643e+17
-8.8770129e+16
-7.6999515e+16
-6.8801038e+16
-1.0794465e+17
-9.0741055e+16
-7.8225816e+16
-6.9519542e+16
-1.1182533e+17
-9.3699633e+16
-8.0514312e+16
-7.134781e+16
-1.159549e+17
-9.6983723e+16
-8.3183174e+16
-7.3592137e+16
-6.3583959e+16
-6.0956098e+16
-6.0693749e+16
-6.27231e+16
-6.3998384e+16
-6.1247906e+16
-6.1031133e+16
-6.3269298e+16
-6.5545713e+16
-6.2673047e+16
-6.2481145e+16
-6.488661e+16
-6.7528321e+16
-6.453737e+16
-6.4359688e+16
-6.6908257e+16
-6.7111649e+16
-7.40688e+16
-8.3955163e+16
-9.7301166e+16
-6.8032963e+16
-7.5542228e+16
-8.6177007e+16
-1.004964e+17
-6.9963162e+16
-7.7941344e+16
-8.9219075e+16
-1.0438264e+17
-7.2259163e+16
-8.0653244e+16
-9.2505289e+16
-1.0842714e+17
-1.1483578e+17
-1.3752709e+17
-1.6663681e+17
-2.037925e+17
-1.1926896e+17
-1.4351554e+17
-1.7456687e+17
-2.1413973e+17
-1.2423786e+17
-1.4985541e+17
-1.8263109e+17
-2.243658e+17
-1.2925958e+17
-1.5612004e+17
-1.904654e+17
-2.3417553e+17
3.068379e+17
2.5980099e+17
2.2000161e+17
1.8632802e+17
3.2529306e+17
2.7549663e+17
2.3335421e+17
1.9769092e+17
3.4210976e+17
2.8977404e+17
2.454785e+17
2.0798949e+17
3.5765859e+17
3.0296301e+17
2.5666791e+17
2.174846e+17
1.5114107e+17
1.1838046e+17
9.271944e+16
7.2616336e+16
1.604168e+17
1.2570129e+17
9.8499197e+16
7.7180541e+16
1.688032e+17
1.3230101e+17
1.0369411e+17
8.1270416e+16
1.7652511e+17
1.383681e+17
1.0846175e+17
8.5017338e+16
6.0067251e+16
5.1969459e+16
4.4971988e+16
3.8926353e+16
6.3867212e+16
5.5273988e+16
4.7846416e+16
4.1427384e+16
6.7264323e+16
5.8222844e+16
5.0406825e+16
4.3651204e+16
7.0372251e+16
6.0917734e+16
5.2744123e+16
4.5678957e+16
3.115878e+16
2.3428285e+16
1.7623133e+16
1.3265393e+16
3.3177672e+16
2.4962546e+16
1.8789687e+16
1.4152956e+16
3.4967715e+16
2.631822e+16
1.9817045e+16
1.4932162e+16
3.6596975e+16
2.7549282e+16
2.0747805e+16
1.5636468e+16
9.3919765e+15
6.363454e+15
4.3113667e+15
2.9203603e+15
1.0028811e+16
6.8012948e+15
4.6123208e+15
3.1271172e+15
1.0585846e+16
7.1828585e+15
4.8737302e+15
3.3061908e+15
1.1087895e+16
7.5256858e+15
5.107892e+15
3.466134e+15
2.0176602e+15
1.4132998e+15
9.8954294e+14
6.9215846e+14
2.1623707e+15
1.5159051e+15
1.0622317e+15
7.435787e+14
2.2874161e+15
1.6044001e+15
1.1248276e+15
7.878053e+14
2.3988139e+15
1.6830511e+15
1.1803387e+15
8.2694704e+14
4.9918501e+14
3.6779514e+14
2.7005281e+14
1.9701748e+14
5.3662925e+14
3.9562218e+14
2.9065047e+14
2.1215721e+14
5.6880838e+14
4.1952256e+14
3.0833455e+14
2.2515214e+14
5.9724072e+14
4.4061035e+14
3.2391785e+14
2.3659061e+14
1.4566155e+14
1.0797961e+14
7.7776744e+13
5.2991463e+13
1.5692403e+14
1.1637181e+14
8.3848266e+13
5.7142841e+13
1.6658986e+14
1.23574e+14
8.9058888e+13
6.0705708e+13
1.7509049e+14
1.2990348e+14
9.3635449e+13
6.3833601e+13
3.8271921e+13
3.0289713e+13
2.2659871e+13
1.5300626e+13
4.1274763e+13
3.2668203e+13
2.4440319e+13
1.6503298e+13
4.3851968e+13
3.4709577e+13
2.5968439e+13
1.7535525e+13
4.6114089e+13
3.6501197e+13
2.7309491e+13
1.8441351e+13
1.106529e+15
1.127009e+15
1.1726906e+15
1.243848e+15
1.1482232e+15
1.1694595e+15
1.2168273e+15
1.2906107e+15
1.1866812e+15
1.208619e+15
1.2575513e+15
1.3337711e+15
1.2223431e+15
1.2449337e+15
1.2953219e+15
1.3738091e+15
1.4591667e+15
2.0783458e+15
3.2128534e+15
5.2161615e+15
1.5138707e+15
2.1558387e+15
3.3319727e+15
5.4085264e+15
1.5644007e+15
2.2275302e+15
3.4423531e+15
5.5870536e+15
1.6112978e+15
2.294129e+15
3.544989e+15
5.7531979e+15
8.8230755e+15
1.5476037e+16
2.7533527e+16
4.9497462e+16
9.1468474e+15
1.6041324e+16
2.8535069e+16
5.1291278e+16
9.4477577e+15
1.6567385e+16
2.9468171e+16
5.2964125e+16
9.7280119e+15
1.7057664e+16
3.0338296e+16
5.4524784e+16
7.3557735e+16
8.3478e+16
9.4855665e+16
1.0789312e+17
7.6217063e+16
8.6493953e+16
9.8280387e+16
1.1178601e+17
7.869848e+16
8.930863e+16
1.0147702e+17
1.1542013e+17
8.1014117e+16
9.1935387e+16
1.0446047e+17
1.188121e+17
1.276672e+17
1.5825194e+17
1.9638009e+17
2.4390989e+17
1.3226971e+17
1.6395108e+17
2.0344524e+17
2.5267649e+17
1.3656709e+17
1.6927357e+17
2.1004473e+17
2.6086679e+17
1.4057844e+17
1.7424223e+17
2.1620602e+17
2.6851379e+17
2.9381025e+17
3.4121165e+17
3.964062e+17
4.6067681e+17
3.0436174e+17
3.5345779e+17
4.1062457e+17
4.7719058e+17
3.1422105e+17
3.6490177e+17
4.2391289e+17
4.9262555e+17
3.2342685e+17
3.7558762e+17
4.3632137e+17
5.07039e+17
-2.8789107e+17
-2.2765803e+17
-1.8160873e+17
-1.4654422e+17
-2.9790103e+17
-2.3550722e+17
-1.8778995e+17
-1.5144442e+17
-3.0728531e+17
-2.4287698e+17
-1.9360401e+17
-1.5606296e+17
-3.1605518e+17
-2.4976872e+17
-1.990445e+17
-1.6038764e+17
-1.2004548e+17
-1.0029026e+17
-8.5918711e+16
-7.5932796e+16
-1.2397032e+17
-1.0348436e+17
-8.8580026e+16
-7.8225234e+16
-1.2767838e+17
-1.0650973e+17
-9.1107468e+16
-8.0407558e+16
-1.3115278e+17
-1.0934637e+17
-9.3478519e+16
-8.245574e+16
-6.9623972e+16
-6.6520158e+16
-6.6351379e+16
-6.9027125e+16
-7.1686717e+16
-6.8476007e+16
-6.8313281e+16
-7.1104741e+16
-7.3653669e+16
-7.0342077e+16
-7.0183953e+16
-7.3082141e+16
-7.5500188e+16
-7.2093816e+16
-7.1939309e+16
-7.4936577e+16
-7.4626251e+16
-8.3398585e+16
-9.5775116e+16
-1.1239147e+17
-7.6932037e+16
-8.6053233e+16
-9.8914672e+16
-1.1617367e+17
-7.9120788e+16
-8.8565911e+16
-1.0187785e+17
-1.1973467e+17
-8.1171841e+16
-9.0918653e+16
-1.0465028e+17
-1.230641e+17
-1.3412138e+17
-1.6212585e+17
-1.9791893e+17
-2.4345434e+17
-1.3873506e+17
-1.6780054e+17
-2.0493747e+17
-2.5216854e+17
-1.4306959e+17
-1.7312251e+17
-2.1151041e+17
-2.603203e+17
-1.4711976e+17
-1.7809267e+17
-2.1764612e+17
-2.6792684e+17
3.7213049e+17
3.1523292e+17
2.6707259e+17
2.2630937e+17
3.8563371e+17
3.2667897e+17
2.767764e+17
2.3453766e+17
3.9823823e+17
3.3736219e+17
2.8583251e+17
2.4221587e+17
4.0999688e+17
3.4732806e+17
2.9428015e+17
2.4937784e+17
1.8369703e+17
1.4399838e+17
1.1288221e+17
8.8488153e+16
1.9038194e+17
1.4924418e+17
1.1699897e+17
9.171895e+16
1.9661898e+17
1.5413756e+17
1.2083836e+17
9.4731373e+16
2.024363e+17
1.5870125e+17
1.2441872e+17
9.7540273e+16
7.3249012e+16
6.3410661e+16
5.4904918e+16
4.7552404e+16
7.5925809e+16
6.5729588e+16
5.6914242e+16
4.929394e+16
7.8421206e+16
6.7891011e+16
5.8786812e+16
5.0916667e+16
8.074781e+16
6.9906101e+16
6.0532462e+16
5.2429297e+16
3.8100687e+16
2.8683951e+16
2.1604482e+16
1.6283783e+16
3.9497752e+16
2.9737374e+16
2.2399205e+16
1.6883797e+16
4.0799148e+16
3.0718294e+16
2.3138934e+16
1.7442053e+16
4.2012089e+16
3.1632378e+16
2.3828125e+16
1.7962058e+16
1.154847e+16
7.8395353e+15
5.3218044e+15
3.6119322e+15
1.1974936e+16
8.129782e+15
5.5193712e+15
3.746406e+15
1.2371497e+16
8.3994902e+15
5.7028233e+15
3.8711747e+15
1.2740781e+16
8.65056e+15
5.8735318e+15
3.9872273e+15
2.500155e+15
1.7544634e+15
1.2306452e+15
8.6235356e+14
2.5935007e+15
1.8201552e+15
1.2768604e+15
8.9483702e+14
2.6800416e+15
1.8810098e+15
1.3196374e+15
9.248783e+14
2.7605024e+15
1.9375639e+15
1.3593725e+15
9.527697e+14
6.2291881e+14
4.5962818e+14
3.3795261e+14
2.4687959e+14
6.4644887e+14
4.7703599e+14
3.5078556e+14
2.5627803e+14
6.6819295e+14
4.9311077e+14
3.6262733e+14
2.6494456e+14
6.8837174e+14
5.0802184e+14
3.7360703e+14
2.7297675e+14
1.8272903e+14
1.3558618e+14
9.7741354e+13
6.6638169e+13
1.8970052e+14
1.4076885e+14
1.0148363e+14
6.9193054e+13
1.9612527e+14
1.4554264e+14
1.0492913e+14
7.1544471e+13
2.0207757e+14
1.4996396e+14
1.0811933e+14
7.3721146e+13
4.8141876e+13
3.8107004e+13
2.8511337e+13
1.9253097e+13
4.9988729e+13
3.956935e+13
2.9605718e+13
1.9992221e+13
5.1688212e+13
4.0914909e+13
3.0612629e+13
2.0672241e+13
5.326125e+13
4.2160276e+13
3.1544531e+13
2.1301587e+13
1.2554884e+15
1.278687e+15
1.3304311e+15
1.4110298e+15
1.2863099e+15
1.3100742e+15
1.3630806e+15
1.4456448e+15
1.3149549e+15
1.3392454e+15
1.3934252e+15
1.4778171e+15
1.3415472e+15
1.3663262e+15
1.4215955e+15
1.5076844e+15
1.6549066e+15
2.3560897e+15
3.6405249e+15
5.9079174e+15
1.695468e+15
2.4137349e+15
3.7294285e+15
6.0519253e+15
1.7331693e+15
2.4673212e+15
3.8120801e+15
6.1858162e+15
1.76817e+15
2.5170707e+15
3.8888155e+15
6.310124e+15
9.9890935e+15
1.7514549e+16
3.1149354e+16
5.5979775e+16
1.023214e+16
1.7939926e+16
3.190455e+16
5.7334629e+16
1.0458123e+16
1.833545e+16
3.2606752e+16
5.8594401e+16
1.0667931e+16
1.8702659e+16
3.3258666e+16
5.9763914e+16
8.3173175e+16
9.4384617e+16
1.0724234e+17
1.2197496e+17
8.5183705e+16
9.6665328e+16
1.0983282e+17
1.2492025e+17
8.705308e+16
9.8785965e+16
1.1224145e+17
1.2765874e+17
8.8788482e+16
1.0075456e+17
1.1447739e+17
1.3020088e+17
1.4431893e+17
1.7887552e+17
2.219516e+17
2.7564496e+17
1.4780211e+17
1.8319008e+17
2.2730189e+17
2.822855e+17
1.510407e+17
1.8720163e+17
2.3227636e+17
2.884595e+17
1.5404703e+17
1.9092542e+17
2.368939e+17
2.9419037e+17
3.3201177e+17
3.8555287e+17
4.4789314e+17
5.2048062e+17
3.4000599e+17
3.9483237e+17
4.5866853e+17
5.3299709e+17
3.4743843e+17
4.034597e+17
4.6868648e+17
5.4463359e+17
3.5433734e+17
4.1146757e+17
4.7798502e+17
5.5543425e+17
-3.2423252e+17
-2.5619655e+17
-2.0411963e+17
-1.644219e+17
-3.3184342e+17
-2.6217949e+17
-2.0884283e+17
-1.6817546e+17
-3.3891569e+17
-2.6773894e+17
-2.1323086e+17
-1.7166096e+17
-3.4547707e+17
-2.7289634e+17
-2.1730058e+17
-1.7489231e+17
-1.3439354e+17
-1.119915e+17
-9.5688786e+16
-8.4364081e+16
-1.3740727e+17
-1.1444948e+17
-9.774099e+16
-8.6134394e+16
-1.4020403e+17
-1.1672866e+17
-9.964181e+16
-8.7772467e+16
-1.4279481e+17
-1.1883811e+17
-1.0139911e+17
-8.9285011e+16
-7.7219787e+16
-7.3724432e+16
-7.3572853e+16
-7.6662353e+16
-7.881385e+16
-7.5235402e+16
-7.5086335e+16
-7.8261527e+16
-8.0287372e+16
-7.6631119e+16
-7.6484334e+16
-7.9739387e+16
-8.1646812e+16
-7.7918178e+16
-7.7773327e+16
-8.1102441e+16
-8.3080906e+16
-9.3108926e+16
-1.0723172e+17
-1.261646e+17
-8.4850759e+16
-9.514089e+16