/*--------------------------------*- C++ -*----------------------------------*\
| =========                 |                                                 |
| \\      /  F ield         | OpenFOAM: The Open Source CFD Toolbox           |
|  \\    /   O peration     | Version:  1.4.1-dev                             |
|   \\  /    A nd           | Web:      http://www.openfoam.org               |
|    \\/     M anipulation  |                                                 |
\*---------------------------------------------------------------------------*/

FoamFile
{
    version 2.0;
    format ascii;

    root "/home/cliffoi/OpenFOAM/cliffoi-1.4.1-dev/run/diffusionFoam";
    case "oecd_simplified_2G";
    instance "0";
    local "";

    class volScalarField;
    object Leakage2;
}

// * * * * * * * * * * * * * * * * * * * * * * * * * * * * * * * * * * * * * //

dimensions      [0 -3 -1 0 0 0 0];

internalField   nonuniform List<scalar> 
9280
(
4.7519425e+14
4.7525388e+14
4.7537762e+14
4.7556588e+14
1.2312714e+15
1.2314366e+15
1.2317898e+15
1.2323223e+15
2.0141734e+15
2.0144793e+15
2.0151431e+15
2.0161443e+15
2.849356e+15
2.8498641e+15
2.850974e+15
2.8526436e+15
4.7610344e+14
4.7740642e+14
4.7917597e+14
4.8127935e+14
1.2338575e+15
1.237577e+15
1.2426531e+15
1.2487325e+15
2.0190396e+15
2.0260659e+15
2.0357098e+15
2.0473633e+15
2.8574772e+15
2.8692426e+15
2.8854705e+15
2.9052297e+15
4.8361244e+14
4.8596213e+14
4.8801152e+14
4.8947522e+14
1.2555513e+15
1.2625494e+15
1.2688644e+15
1.2737289e+15
2.0606054e+15
2.0744887e+15
2.0874767e+15
2.0982277e+15
2.9279327e+15
2.9521432e+15
2.9754241e+15
2.9956875e+15
4.8983548e+14
4.8990096e+14
4.8992503e+14
4.8989156e+14
1.2753105e+15
1.2757281e+15
1.2760257e+15
1.2761813e+15
2.1025181e+15
2.1038095e+15
2.1049068e+15
2.1057636e+15
3.0047328e+15
3.0076374e+15
3.0102575e+15
3.0125153e+15
4.8977062e+14
4.8945717e+14
4.8896339e+14
4.88278e+14
1.2761859e+15
1.275762e+15
1.2748687e+15
1.2734748e+15
2.1065665e+15
2.1068521e+15
2.1063521e+15
2.1050114e+15
3.015032e+15
3.0171037e+15
3.0180305e+15
3.0177173e+15
4.8753258e+14
4.8681963e+14
4.8600518e+14
4.8508485e+14
1.2718574e+15
1.2702675e+15
1.2684099e+15
1.266269e+15
2.1031408e+15
2.1011589e+15
2.0987239e+15
2.0958118e+15
3.0163586e+15
3.0145853e+15
3.0121545e+15
3.0089948e+15
4.8344948e+14
4.8069957e+14
4.7738946e+14
4.7349737e+14
1.2624205e+15
1.2557886e+15
1.247677e+15
1.2380254e+15
2.090427e+15
2.0807426e+15
2.0685528e+15
2.0537483e+15
3.002883e+15
2.9910731e+15
2.9755707e+15
2.9562197e+15
4.6900505e+14
4.6389953e+14
4.5817132e+14
4.5181561e+14
1.2267822e+15
1.2139095e+15
1.1993806e+15
1.1831818e+15
2.0362383e+15
2.0159561e+15
1.9928511e+15
1.9668934e+15
2.932872e+15
2.9054253e+15
2.8738078e+15
2.8379654e+15
4.4483498e+14
4.3723381e+14
4.2902329e+14
4.202197e+14
1.1653148e+15
1.145792e+15
1.1246405e+15
1.1018998e+15
1.9380824e+15
1.9064361e+15
1.8719956e+15
1.834824e+15
2.7978891e+15
2.7535964e+15
2.7051492e+15
2.652621e+15
4.1084249e+14
4.0091643e+14
3.9047005e+14
3.795355e+14
1.0776223e+15
1.0518712e+15
1.0247217e+15
9.9625773e+14
1.7950121e+15
1.7526579e+15
1.707893e+15
1.6608544e+15
2.5961468e+15
2.5358631e+15
2.4719589e+15
2.4046328e+15
3.6814773e+14
3.5634576e+14
3.4416869e+14
3.3165896e+14
9.665728e+14
9.3576659e+14
9.0394697e+14
8.7122378e+14
1.6117037e+15
1.5606098e+15
1.5077557e+15
1.4533308e+15
2.3341144e+15
2.2606483e+15
2.184506e+15
2.1059603e+15
3.2231396e+14
3.1630334e+14
3.1024782e+14
3.0414664e+14
8.4673246e+14
8.3100818e+14
8.1514476e+14
7.9915048e+14
1.4125847e+15
1.3863698e+15
1.3599297e+15
1.3332615e+15
2.0470253e+15
2.0091372e+15
1.9708659e+15
1.9322511e+15
2.9655244e+14
2.8745083e+14
2.7828074e+14
2.6905734e+14
7.7925576e+14
7.5538015e+14
7.3132142e+14
7.0711546e+14
1.3000595e+15
1.260222e+15
1.2200541e+15
1.1796242e+15
1.8841551e+15
1.8263755e+15
1.7680881e+15
1.7093842e+15
2.6168382e+14
2.5615567e+14
2.5062569e+14
2.4508987e+14
6.877344e+14
6.7324313e+14
6.5872197e+14
6.4418512e+14
1.1472782e+15
1.1230359e+15
1.0987682e+15
1.0744673e+15
1.662358e+15
1.6271665e+15
1.591899e+15
1.55658e+15
2.3684385e+14
2.2592957e+14
2.1502998e+14
2.0416433e+14
6.2254778e+14
5.9386819e+14
5.6523375e+14
5.3668534e+14
1.0382744e+15
9.9034099e+14
9.424703e+14
8.9474653e+14
1.5039858e+15
1.4342695e+15
1.3646536e+15
1.2952531e+15
1.9134531e+14
1.7667345e+14
1.6215105e+14
1.478036e+14
5.0300441e+14
4.6444592e+14
4.2628082e+14
3.8857567e+14
8.3844281e+14
7.7401717e+14
7.1027062e+14
6.4732079e+14
1.2133888e+15
1.1197425e+15
1.0271385e+15
9.3575433e+14
1.3426378e+14
1.2150339e+14
1.0892669e+14
9.653945e+13
3.5299307e+14
3.1946044e+14
2.8641009e+14
2.538579e+14
5.8794556e+14
5.3201529e+14
4.7691614e+14
4.2267007e+14
8.4963019e+14
7.6856576e+14
6.8877125e+14
6.1027506e+14
8.5281928e+13
7.5090169e+13
6.5036348e+13
5.5118549e+13
2.2427426e+14
1.9749003e+14
1.71066e+14
1.4499638e+14
3.7339333e+14
3.2878995e+14
2.8479678e+14
2.4140135e+14
5.3902405e+14
4.7456848e+14
4.1102666e+14
3.4837422e+14
4.5982614e+13
3.7587591e+13
2.92885e+13
2.1082781e+13
1.2097818e+14
9.8904146e+13
7.7077827e+13
5.5491442e+13
2.0142573e+14
1.6468476e+14
1.283544e+14
9.2418875e+13
2.9067894e+14
2.376619e+14
1.8524161e+14
1.3339011e+14
1.5409217e+13
1.2176381e+13
8.958241e+12
5.75387e+12
4.056043e+13
3.2055052e+13
2.358457e+13
1.5149319e+13
6.7561764e+13
5.3395435e+13
3.9288612e+13
2.523798e+13
9.7519606e+13
7.7077795e+13
5.6716837e+13
3.6434828e+13
3.7580705e+15
3.7588603e+15
3.76059e+15
3.7631997e+15
4.7560515e+15
4.7572142e+15
4.7597761e+15
4.7636303e+15
5.8515215e+15
5.853151e+15
5.8567338e+15
5.8621159e+15
7.0430107e+15
7.0451566e+15
7.0498268e+15
7.0568533e+15
3.7707612e+15
3.7891814e+15
3.8146663e+15
3.8458195e+15
4.7748209e+15
4.8020577e+15
4.8397153e+15
4.8856433e+15
5.8777467e+15
5.9156185e+15
5.9675561e+15
6.0299947e+15
7.0772005e+15
7.1259721e+15
7.191358e+15
7.2667557e+15
3.8818154e+15
3.9205077e+15
3.9581634e+15
3.9916352e+15
4.9384784e+15
4.9947853e+15
5.0487585e+15
5.0954951e+15
6.1000705e+15
6.1714204e+15
6.2342649e+15
6.2799583e+15
7.3450468e+15
7.412335e+15
7.4494325e+15
7.4373651e+15
4.0072918e+15
4.0124023e+15
4.0171252e+15
4.0213278e+15
5.116318e+15
5.1230575e+15
5.1291384e+15
5.1344664e+15
6.2924145e+15
6.2954843e+15
6.2973062e+15
6.2977154e+15
7.3907237e+15
7.3705961e+15
7.3472537e+15
7.3205539e+15
4.0262273e+15
4.0308141e+15
4.0337882e+15
4.0350274e+15
5.1404917e+15
5.1457586e+15
5.1486787e+15
5.1491636e+15
6.2964126e+15
6.2909665e+15
6.2816355e+15
6.268495e+15
7.2807715e+15
7.2226373e+15
7.1561621e+15
7.082104e+15
4.0345485e+15
4.0332167e+15
4.0309777e+15
4.0277777e+15
5.1474565e+15
5.1448086e+15
5.1409541e+15
5.1358225e+15
6.2543458e+15
6.2410974e+15
6.2262442e+15
6.2098677e+15
7.0142256e+15
6.9562415e+15
6.8960816e+15
6.8342167e+15
4.0211133e+15
4.0073254e+15
3.9885161e+15
3.9645182e+15
5.1256883e+15
5.1059531e+15
5.0801107e+15
5.0480743e+15
6.1816022e+15
6.1369485e+15
6.0866985e+15
6.0313838e+15
6.734369e+15
6.5961105e+15
6.4593429e+15
6.3270756e+15
3.9351522e+15
3.9002783e+15
3.8597972e+15
3.8136376e+15
5.0097403e+15
4.9650077e+15
4.913778e+15
4.8559579e+15
5.9713387e+15
5.906697e+15
5.837471e+15
5.7635371e+15
6.2011979e+15
6.0825941e+15
5.971378e+15
5.8671435e+15
3.7617791e+15
3.7042262e+15
3.6410425e+15
3.5723286e+15
4.7915027e+15
4.7203909e+15
4.6426469e+15
4.5583526e+15
5.6847619e+15
5.600981e+15
5.5120824e+15
5.4180063e+15
5.7692491e+15
5.6769621e+15
5.5896253e+15
5.5066979e+15
3.4982278e+15
3.4189213e+15
3.3346354e+15
3.2456232e+15
4.4676345e+15
4.3706603e+15
4.2676396e+15
4.1588076e+15
5.3187362e+15
5.214296e+15
5.1047154e+15
4.9899933e+15
5.4277633e+15
5.3524454e+15
5.2803131e+15
5.2106866e+15
3.1521761e+15
3.0545907e+15
2.9532113e+15
2.8483853e+15
4.0444258e+15
3.924757e+15
3.8000781e+15
3.6706825e+15
4.8700751e+15
4.7448129e+15
4.6139563e+15
4.4771886e+15
5.142501e+15
5.074122e+15
5.0032434e+15
4.926954e+15
2.7695969e+15
2.7188233e+15
2.6674916e+15
2.6156551e+15
3.5729467e+15
3.5098721e+15
3.4459399e+15
3.3811647e+15
4.3728059e+15
4.304899e+15
4.2356024e+15
4.1648594e+15
4.8649563e+15
4.8229999e+15
4.778304e+15
4.7305751e+15
2.5509908e+15
2.4732184e+15
2.3946352e+15
2.31537e+15
3.3002099e+15
3.2023893e+15
3.1031646e+15
3.0026605e+15
4.0756416e+15
3.96655e+15
3.8544184e+15
3.7393547e+15
4.6675216e+15
4.5849623e+15
4.4943791e+15
4.3955745e+15
2.2518379e+15
2.2041835e+15
2.1564235e+15
2.1085586e+15
2.9217436e+15
2.8609868e+15
2.7999391e+15
2.7386079e+15
3.6455952e+15
3.5745855e+15
3.5027612e+15
3.4301266e+15
4.3104594e+15
4.2440743e+15
4.1750118e+15
4.1033381e+15
2.0372108e+15
1.9426041e+15
1.8480419e+15
1.7537159e+15
2.6470524e+15
2.5251359e+15
2.4029101e+15
2.2806685e+15
3.3209391e+15
3.17395e+15
3.0250493e+15
2.8748029e+15
3.9929895e+15
3.8381649e+15
3.675875e+15
3.5074396e+15
1.6423958e+15
1.515059e+15
1.3891636e+15
1.2649922e+15
2.136081e+15
1.9703195e+15
1.8062106e+15
1.6442416e+15
2.6957533e+15
2.4888626e+15
2.2828204e+15
2.0786401e+15
3.3020247e+15
3.0588636e+15
2.8123911e+15
2.5650648e+15
1.1480608e+15
1.0380904e+15
9.2994543e+14
8.2366649e+14
1.4917065e+15
1.3482998e+15
1.2073612e+15
1.0689683e+15
1.8858635e+15
1.704377e+15
1.5259119e+15
1.3506678e+15
2.3295372e+15
2.1066217e+15
1.8866613e+15
1.6702202e+15
7.2729496e+14
6.4018021e+14
5.5436156e+14
4.6979814e+14
9.435951e+14
8.3035343e+14
7.1888197e+14
6.0911726e+14
1.1919744e+15
1.048698e+15
9.0774178e+14
7.6902224e+14
1.4740162e+15
1.296798e+15
1.1224359e+15
9.5085873e+14
3.919655e+14
3.2046542e+14
2.4978572e+14
1.798776e+14
5.0815058e+14
4.1543362e+14
3.238055e+14
2.3318966e+14
6.4149004e+14
5.2441854e+14
4.0874961e+14
2.9437329e+14
7.931531e+14
6.4840259e+14
5.0540206e+14
3.6400102e+14
1.3151887e+14
1.0395264e+14
7.6495237e+13
4.9141757e+13
1.7050709e+14
1.3477511e+14
9.9179204e+13
6.3713777e+13
2.1525932e+14
1.7015176e+14
1.252138e+14
8.043487e+13
2.6619126e+14
2.1041484e+14
1.5484218e+14
9.9459101e+13
8.3175336e+15
8.3201153e+15
8.3257095e+15
8.3341102e+15
9.6505527e+15
9.6533114e+15
9.6592705e+15
9.6681698e+15
1.1009079e+16
1.1011587e+16
1.1016935e+16
1.1024762e+16
1.235808e+16
1.2359781e+16
1.2363343e+16
1.2368212e+16
8.3582791e+15
8.4147878e+15
8.4863785e+15
8.5596743e+15
9.6934179e+15
9.7490446e+15
9.809198e+15
9.8460543e+15
1.1046324e+16
1.1086398e+16
1.1105638e+16
1.104871e+16
1.2380317e+16
1.2387296e+16
1.2330546e+16
1.2110926e+16
8.6163483e+15
8.6227154e+15
8.5343015e+15
8.2996783e+15
9.8147556e+15
9.632733e+15
9.1871557e+15
8.3250658e+15
1.0816326e+16
1.0219139e+16
8.9767922e+15
6.6499609e+15
1.1537496e+16
1.0229259e+16
7.5695479e+15
2.4625984e+15
8.0417569e+15
7.9392008e+15
7.8267621e+15
7.7042492e+15
7.453156e+15
7.1084464e+15
6.7311267e+15
6.3202016e+15
4.236753e+15
3.2706466e+15
2.1982294e+15
1.0128283e+15
-3.16718e+15
-5.4709488e+15
-8.0883394e+15
-1.1053154e+16
7.5287108e+15
7.2846524e+15
7.0161915e+15
6.7264992e+15
5.7307817e+15
4.9076926e+15
3.9966792e+15
3.0072084e+15
-7.1458659e+14
-3.1944817e+15
-6.0207908e+15
-9.1837239e+15
-1.5487295e+16
-2.2152848e+16
-3.0150687e+16
-3.9629145e+16
6.4683568e+15
6.2519691e+15
6.0317695e+15
5.8098183e+15
2.1208648e+15
1.3766834e+15
6.1972906e+14
-1.407234e+14
-1.2099692e+16
-1.4590683e+16
-1.7160284e+16
-1.9764366e+16
-4.8936931e+16
-5.7263508e+16
-6.626943e+16
-7.5831158e+16
5.4593024e+15
4.9993737e+15
4.5731932e+15
4.1922425e+15
-1.3334868e+15
-2.8551841e+15
-4.2081321e+15
-5.3572595e+15
-2.3851591e+16
-2.8858675e+16
-3.3077781e+16
-3.646873e+16
-9.1477681e+16
-1.0783911e+17
-1.202453e+17
-1.2948305e+17
3.8625372e+15
3.5858054e+15
3.3608876e+15
3.1850135e+15
-6.292541e+15
-7.0196523e+15
-7.5522833e+15
-7.9068024e+15
-3.9079967e+16
-4.0992808e+16
-4.2293286e+16
-4.3058695e+16
-1.3617685e+17
-1.4081287e+17
-1.4376273e+17
-1.4530429e+17
3.0548634e+15
2.9672489e+15
2.9195579e+15
2.9099052e+15
-8.0988427e+15
-8.1413413e+15
-8.0435751e+15
-7.8109297e+15
-4.3351815e+16
-4.3218993e+16
-4.2689984e+16
-4.1778661e+16
-1.4563845e+17
-1.4490213e+17
-1.4317743e+17
-1.404977e+17
2.9370997e+15
3.0003732e+15
3.0989644e+15
3.2314104e+15
-7.4450968e+15
-6.9448823e+15
-6.3074072e+15
-5.5302366e+15
-4.0483936e+16
-3.8791093e+16
-3.6673692e+16
-3.4096947e+16
-1.368505e+17
-1.3217788e+17
-1.26374e+17
-1.1928013e+17
3.3948133e+15
3.5838558e+15
3.790008e+15
4.0010731e+15
-4.6142846e+15
-3.5681121e+15
-2.4133086e+15
-1.1904731e+15
-3.1024036e+16
-2.742805e+16
-2.3314388e+16
-1.8762344e+16
-1.1067684e+17
-1.0027334e+17
-8.7693459e+16
-7.2458051e+16
4.1480353e+15
4.2362885e+15
4.318114e+15
4.3919158e+15
-2.9286061e+14
2.6589238e+14
8.0525386e+14
1.3183149e+15
-1.5282078e+16
-1.3106964e+16
-1.1012044e+16
-9.0301509e+15
-5.8940127e+16
-5.07853e+16
-4.3246241e+16
-3.6406343e+16
4.4715115e+15
4.5433671e+15
4.5900148e+15
4.6103346e+15
1.9123824e+15
2.537958e+15
3.0747029e+15
3.5198891e+15
-6.7501651e+15
-4.3698504e+15
-2.332608e+15
-6.2898735e+14
-2.884995e+16
-2.1381498e+16
-1.528491e+16
-1.0382056e+16
4.605626e+15
4.5928302e+15
4.571194e+15
4.5409989e+15
3.8029944e+15
3.9836749e+15
4.1351143e+15
4.2587151e+15
4.8125731e+14
1.2088368e+15
1.8422758e+15
2.388732e+15
-7.2820082e+15
-5.2776974e+15
-3.5501075e+15
-2.0683622e+15
4.4837978e+15
4.3791775e+15
4.2492286e+15
4.0979269e+15
4.4033511e+15
4.5035687e+15
4.5256487e+15
4.482771e+15
3.0824273e+15
3.7328178e+15
4.1633549e+15
4.4175377e+15
-1.8852378e+14
1.6052583e+15
2.859916e+15
3.7016509e+15
3.8977295e+15
3.6421391e+15
3.369771e+15
3.087187e+15
4.3691122e+15
4.1632697e+15
3.904927e+15
3.6116767e+15
4.5533088e+15
4.5181482e+15
4.3503475e+15
4.0938952e+15
4.3265931e+15
4.6316225e+15
4.6578493e+15
4.5010352e+15
2.8120364e+15
2.5480081e+15
2.2850603e+15
2.0247369e+15
3.3105234e+15
3.0125245e+15
2.7097508e+15
2.4060683e+15
3.7941751e+15
3.4780969e+15
3.144585e+15
2.8021562e+15
4.2389309e+15
3.9261374e+15
3.574756e+15
3.201009e+15
1.787844e+15
1.5734188e+15
1.362173e+15
1.1541371e+15
2.127382e+15
1.8739052e+15
1.6233785e+15
1.3761238e+15
2.4832741e+15
2.1908121e+15
1.9001206e+15
1.6121242e+15
2.845556e+15
2.5157659e+15
2.1854162e+15
1.8563944e+15
9.6283872e+14
7.8720557e+14
6.1366057e+14
4.4202075e+14
1.1484366e+15
9.3920573e+14
7.3232185e+14
5.2759781e+14
1.3462277e+15
1.1014772e+15
8.5917838e+14
6.1917811e+14
1.5515246e+15
1.2702554e+15
9.9133435e+14
7.14704e+14
3.2327105e+14
2.5554361e+14
1.8804608e+14
1.2077016e+14
3.8590181e+14
3.0505426e+14
2.2447773e+14
1.4414085e+14
4.5295347e+14
3.5807611e+14
2.6348574e+14
1.6915284e+14
5.2292701e+14
4.1342293e+14
3.0420253e+14
1.9525585e+14
1.3667409e+16
1.3667911e+16
1.3668712e+16
1.366916e+16
1.49151e+16
1.4914227e+16
1.491193e+16
1.4907444e+16
1.6085691e+16
1.6083529e+16
1.6078264e+16
1.60691e+16
1.7168743e+16
1.7165381e+16
1.7157515e+16
1.7144187e+16
1.3667298e+16
1.3627999e+16
1.3470092e+16
1.3040144e+16
1.4890156e+16
1.4801436e+16
1.4539711e+16
1.3901728e+16
1.6037296e+16
1.5903327e+16
1.5549841e+16
1.4734555e+16
1.7099617e+16
1.6926722e+16
1.6496507e+16
1.5537197e+16
1.2030439e+16
9.8067939e+15
5.2763204e+15
-3.6787492e+15
1.2475609e+16
9.4125655e+15
3.2500338e+15
-8.8418415e+15
1.2966483e+16
9.242069e+15
1.8520684e+15
-1.2477329e+16
1.3498817e+16
9.2653725e+15
9.5324044e+14
-1.5023861e+16
-1.4127838e+16
-1.8501197e+16
-2.3588929e+16
-2.9501404e+16
-2.2850894e+16
-2.8696462e+16
-3.5475731e+16
-4.3325189e+16
-2.888036e+16
-3.5701403e+16
-4.3585531e+16
-5.2683923e+16
-3.3169072e+16
-4.0700519e+16
-4.9389718e+16
-5.9399642e+16
-3.8596331e+16
-5.2995933e+16
-7.1403394e+16
-9.4992191e+16
-5.5349614e+16
-7.4232635e+16
-9.8112504e+16
-1.2828556e+17
-6.6573911e+16
-8.8264641e+16
-1.1553601e+17
-1.4978892e+17
-7.4656077e+16
-9.8418551e+16
-1.2822073e+17
-1.6556504e+17
-1.2053584e+17
-1.4539509e+17
-1.7511712e+17
-2.1074766e+17
-1.6036695e+17
-1.9109253e+17
-2.2714314e+17
-2.6941389e+17
-1.8599032e+17
-2.2052098e+17
-2.6088022e+17
-3.0803642e+17
-2.0494815e+17
-2.4246157e+17
-2.862505e+17
-3.3735358e+17
1.5861121e+17
1.3801798e+17
1.2265027e+17
1.1112994e+17
1.443103e+17
1.1811762e+17
9.83528e+16
8.3462627e+16
1.4336667e+17
1.133065e+17
9.0490849e+16
7.3228322e+16
1.4813581e+17
1.1512383e+17
8.998965e+16
7.0923164e+16
1.0246745e+17
9.5948589e+16
9.1058816e+16
8.7431658e+16
7.2287443e+16
6.3966338e+16
5.7866222e+16
5.3529299e+16
6.0246045e+16
5.059097e+16
4.3556343e+16
3.8627135e+16
5.6558528e+16
4.5870077e+16
3.8094689e+16
3.2674505e+16
8.4813633e+16
8.3040326e+16
8.2020841e+16
8.1728746e+16
5.0635197e+16
4.8974028e+16
4.8428371e+16
4.8962485e+16
3.5440304e+16
3.3756347e+16
3.3439986e+16
3.444838e+16
2.9214874e+16
2.7454475e+16
2.7244873e+16
2.8537879e+16
8.2198194e+16
8.3525192e+16
8.5873784e+16
8.9488143e+16
5.0617509e+16
5.3512416e+16
5.7850407e+16
6.3931116e+16
3.6825757e+16
4.0703907e+16
4.630836e+16
5.3970539e+16
3.1379824e+16
3.591185e+16
4.2376238e+16
5.1128953e+16
9.4712195e+16
1.0201946e+17
1.1205846e+17
1.2572189e+17
7.2169338e+16
8.3121065e+16
9.7518206e+16
1.163125e+17
6.4146286e+16
7.7441785e+16
9.464827e+16
1.1678719e+17
6.2658959e+16
7.7615447e+16
9.6844453e+16
1.2143693e+17
-1.66739e+17
-1.3631364e+17
-1.1132699e+17
-9.0762935e+16
-2.1412791e+17
-1.7758136e+17
-1.4691491e+17
-1.2120853e+17
-2.4561697e+17
-2.0457654e+17
-1.7001522e+17
-1.4093023e+17
-2.6960631e+17
-2.2494753e+17
-1.8729193e+17
-1.555598e+17
-6.9824554e+16
-5.0994347e+16
-3.6720534e+16
-2.5891345e+16
-9.4619344e+16
-7.0266778e+16
-5.153921e+16
-3.7167468e+16
-1.1072209e+17
-8.288437e+16
-6.1344246e+16
-4.4713292e+16
-1.2255407e+17
-9.2068498e+16
-6.8421273e+16
-5.0115505e+16
-1.9347891e+16
-1.5212252e+16
-1.1715572e+16
-8.7643307e+15
-2.8402615e+16
-2.2834954e+16
-1.810552e+16
-1.4095714e+16
-3.4510023e+16
-2.8005433e+16
-2.246028e+16
-1.7741835e+16
-3.8853581e+16
-3.1661546e+16
-2.5519254e+16
-2.0282801e+16
-5.0683134e+15
-1.5921575e+15
8.3845259e+14
2.4997217e+15
-9.0512488e+15
-4.2637611e+15
-8.7900632e+14
1.4698817e+15
-1.1783983e+16
-6.0878481e+15
-2.0276294e+15
8.1767561e+14
-1.3657877e+16
-7.2980358e+15
-2.7437816e+15
4.6518985e+14
3.796499e+15
4.5654784e+15
4.8594435e+15
4.8466875e+15
3.3466255e+15
4.5284757e+15
5.0666691e+15
5.1881233e+15
3.1204298e+15
4.6109378e+15
5.3332732e+15
5.5550988e+15
3.0802346e+15
4.7964247e+15
5.651677e+15
5.9431673e+15
4.6480114e+15
4.3541245e+15
3.9947216e+15
3.5957679e+15
5.0497627e+15
4.7744315e+15
4.4078452e+15
3.9849403e+15
5.4594474e+15
5.1935496e+15
4.8152779e+15
4.3666378e+15
5.8733375e+15
5.6077151e+15
5.2130603e+15
4.7367923e+15
3.2071562e+15
2.8419566e+15
2.4730318e+15
2.1034705e+15
3.5643723e+15
3.1647939e+15
2.7581767e+15
2.3488055e+15
3.9138902e+15
3.4803455e+15
3.0368226e+15
2.5885999e+15
4.2517005e+15
3.7848053e+15
3.3054418e+15
2.8197077e+15
1.7596789e+15
1.4416962e+15
1.1257736e+15
8.1199444e+14
1.9666436e+15
1.612349e+15
1.2597329e+15
9.0902623e+14
2.1690267e+15
1.7793153e+15
1.3908823e+15
1.0040873e+15
2.3641067e+15
1.9403074e+15
1.5173984e+15
1.0958446e+15
5.9424312e+14
4.698399e+14
3.4571921e+14
2.2186476e+14
6.6540471e+14
5.2615466e+14
3.8717275e+14
2.4844032e+14
7.3516277e+14
5.8137127e+14
4.2783463e+14
2.7452303e+14
8.0252345e+14
6.3472099e+14
4.6713007e+14
2.9974691e+14
1.8158482e+16
1.8154043e+16
1.8143815e+16
1.8126922e+16
1.9053423e+16
1.9048211e+16
1.9035772e+16
1.901562e+16
1.9856395e+16
1.9850124e+16
1.9835925e+16
1.9812483e+16
2.0572003e+16
2.0564932e+16
2.0548867e+16
2.05225e+16
1.8071085e+16
1.7864661e+16
1.7369797e+16
1.6291563e+16
1.8949726e+16
1.8713493e+16
1.8162142e+16
1.6981386e+16
1.973734e+16
1.9473712e+16
1.8871104e+16
1.7598283e+16
2.0438468e+16
2.014908e+16
1.9498709e+16
1.8140787e+16
1.4033593e+16
9.3915769e+15
3.4394821e+14
-1.694829e+16
1.4535907e+16
9.5464221e+15
-1.2739768e+14
-1.8546386e+16
1.498543e+16
9.6864536e+15
-5.4609526e+14
-1.9975247e+16
1.5374145e+16
9.7914795e+15
-9.5340853e+14
-2.1310754e+16
-3.6496287e+16
-4.4602013e+16
-5.3944836e+16
-6.4698398e+16
-3.930909e+16
-4.7913543e+16
-5.7825912e+16
-6.9229916e+16
-4.1834285e+16
-5.0889688e+16
-6.1318149e+16
-7.3312177e+16
-4.4180346e+16
-5.3651841e+16
-6.4556679e+16
-7.709589e+16
-8.1074792e+16
-1.0654992e+17
-1.3846372e+17
-1.7841281e+17
-8.6588465e+16
-1.1357394e+17
-1.4735956e+17
-1.8962912e+17
-9.1563674e+16
-1.1992563e+17
-1.5542197e+17
-1.9981752e+17
-9.6173285e+16
-1.2580975e+17
-1.6289179e+17
-2.0926028e+17
-2.2050306e+17
-2.6057128e+17
-3.0731626e+17
-3.6184132e+17
-2.3414315e+17
-2.7650572e+17
-3.2591389e+17
-3.8353026e+17
-2.4655713e+17
-2.9103004e+17
-3.4289076e+17
-4.0335845e+17
-2.5806768e+17
-3.045023e+17
-3.5864471e+17
-4.2176644e+17
1.5524065e+17
1.1977684e+17
9.2729739e+16
7.218061e+16
1.6315917e+17
1.2554277e+17
9.6824558e+16
7.4984732e+16
1.7120237e+17
1.31635e+17
1.0140634e+17
7.8402137e+16
1.7906063e+17
1.3769521e+17
1.0607591e+17
8.2000499e+16
5.6680126e+16
4.5138639e+16
3.6744349e+16
3.0902953e+16
5.8496855e+16
4.6212614e+16
3.7275942e+16
3.1059646e+16
6.1024309e+16
4.8069988e+16
3.864212e+16
3.2083166e+16
6.380398e+16
5.0232706e+16
4.0351393e+16
3.3474264e+16
2.7193373e+16
2.5336243e+16
2.5172369e+16
2.664944e+16
2.7118999e+16
2.5158665e+16
2.5010075e+16
2.661751e+16
2.7926634e+16
2.5862564e+16
2.5713896e+16
2.7421916e+16
2.9114614e+16
2.6948908e+16
2.6792241e+16
2.8583197e+16
2.9815905e+16
3.482124e+16
4.192264e+16
5.1498137e+16
3.0031654e+16
3.5409912e+16
4.3023422e+16
5.3270934e+16
3.103959e+16
3.6731861e+16
4.4783052e+16
5.5611384e+16
3.2376917e+16
3.8345482e+16
4.6785607e+16
5.8133801e+16
6.4067038e+16
8.0318694e+16
1.0115133e+17
1.2772318e+17
6.6700283e+16
8.4038755e+16
1.0623405e+17
1.3450831e+17
6.9791587e+16
8.8086649e+16
1.1149088e+17
1.4128658e+17
7.2990017e+16
9.2150754e+16
1.1665404e+17
1.4783858e+17
-2.8962568e+17
-2.4184453e+17
-2.0153337e+17
-1.6754275e+17
-3.0730021e+17
-2.5671077e+17
-2.1401763e+17
-1.7800707e+17
-3.2339646e+17
-2.7022608e+17
-2.2534666e+17
-1.8748465e+17
-3.3828587e+17
-2.8271893e+17
-2.3581058e+17
-1.9623145e+17
-1.3216483e+17
-9.9454621e+16
-7.4053206e+16
-5.4365338e+16
-1.405139e+17
-1.0582926e+17
-7.8878545e+16
-5.7976144e+16
-1.480555e+17
-1.1156783e+17
-8.3205646e+16
-6.1199547e+16
-1.5500788e+17
-1.1685064e+17
-8.718298e+16
-6.4157022e+16
-4.2236938e+16
-3.448491e+16
-2.7858303e+16
-2.220357e+16
-4.5090196e+16
-3.6850118e+16
-2.9802761e+16
-2.3785717e+16
-4.7627014e+16
-3.8945285e+16
-3.1517815e+16
-2.5174106e+16
-4.9950889e+16
-4.0861832e+16
-3.3084089e+16
-2.6439482e+16
-1.5042145e+16
-8.1522476e+15
-3.2060511e+15
2.8952946e+14
-1.6161137e+16
-8.8164208e+15
-3.536015e+15
2.023315e+14
-1.7132595e+16
-9.3798837e+15
-3.8007674e+15
1.5368746e+14
-1.8014346e+16
-9.886762e+15
-4.0336197e+15
1.1878863e+14
3.1488265e+15
5.0391719e+15
5.9945254e+15
6.3355789e+15
3.2669365e+15
5.3017698e+15
6.3383678e+15
6.7176532e+15
3.4001965e+15
5.5620829e+15
6.6692077e+15
7.0807047e+15
3.5316007e+15
5.8093375e+15
6.9805154e+15
7.4209905e+15
6.2804688e+15
6.0092584e+15
5.5955191e+15
5.0909794e+15
6.6713366e+15
6.3918199e+15
5.9582756e+15
5.4260778e+15
7.0405067e+15
6.7519751e+15
6.2991819e+15
5.740721e+15
7.3859352e+15
7.0887196e+15
6.6178822e+15
6.034916e+15
4.5741463e+15
4.0750456e+15
3.561369e+15
3.0398714e+15
4.8788549e+15
4.349185e+15
3.8030775e+15
3.2478448e+15
5.1649131e+15
4.6065597e+15
4.0300774e+15
3.4432559e+15
5.4324877e+15
4.847427e+15
4.2426355e+15
3.6263529e+15
2.5499853e+15
2.0937628e+15
1.638048e+15
1.1833991e+15
2.7256359e+15
2.238843e+15
1.7521754e+15
1.2662728e+15
2.8907659e+15
2.3753113e+15
1.8595919e+15
1.3443245e+15
3.0455828e+15
2.503335e+15
1.9604251e+15
1.4176397e+15
8.668387e+14
6.8566522e+14
5.0467903e+14
3.2386221e+14
9.2774217e+14
7.3393154e+14
5.4026298e+14
3.4673099e+14
9.8513492e+14
7.7942372e+14
5.7382062e+14
3.6830484e+14
1.0390708e+15
8.2218932e+14
6.0537484e+14
3.8860278e+14
2.1206777e+16
2.1198842e+16
2.1180984e+16
2.1151825e+16
2.1767485e+16
2.1758786e+16
2.1739134e+16
2.1707285e+16
2.2260812e+16
2.2251353e+16
2.2229951e+16
2.2195518e+16
2.2693161e+16
2.2683162e+16
2.2660063e+16
2.2623061e+16
2.1059253e+16
2.0745272e+16
2.0049736e+16
1.8611923e+16
2.160647e+16
2.1268874e+16
2.0530285e+16
1.9016906e+16
2.2086758e+16
2.1726479e+16
2.09468e+16
1.936174e+16
2.2506639e+16
2.2124543e+16
2.1305627e+16
1.9652538e+16
1.570163e+16
9.8549366e+15
-1.3662292e+15
-2.2586535e+16
1.5971449e+16
9.8772526e+15
-1.7893841e+15
-2.3815999e+16
1.6188754e+16
9.8619516e+15
-2.2221982e+15
-2.5003314e+16
1.6359204e+16
9.8137458e+15
-2.6617256e+15
-2.6148687e+16
-4.6396668e+16
-5.6255231e+16
-6.7603782e+16
-8.0650796e+16
-4.8504458e+16
-5.8724932e+16
-7.0487852e+16
-8.4009154e+16
-5.0513095e+16
-6.1071412e+16
-7.3221794e+16
-8.7186304e+16
-5.2425652e+16
-6.3300219e+16
-7.5812001e+16
-9.0190639e+16
-1.0049751e+17
-1.3132212e+17
-1.6988294e+17
-2.1809213e+17
-1.0457464e+17
-1.3650906e+17
-1.7645152e+17
-2.2638062e+17
-1.0842347e+17
-1.4139488e+17
-1.8262817e+17
-2.3416398e+17
-1.1205477e+17
-1.4599431e+17
-1.8843234e+17
-2.4146771e+17
-2.6882935e+17
-3.170955e+17
-3.7336874e+17
-4.3896926e+17
-2.7892133e+17
-3.2889897e+17
-3.8716381e+17
-4.5508133e+17
-2.8838931e+17
-3.3996586e+17
-4.0009088e+17
-4.7017276e+17
-2.9726483e+17
-3.5033352e+17
-4.1219379e+17
-4.842951e+17
1.8659862e+17
1.4356265e+17
1.1065122e+17
8.5580435e+16
1.9376157e+17
1.491678e+17
1.1505108e+17
8.9051181e+16
2.0053184e+17
1.5448381e+17
1.1924105e+17
9.2372704e+16
2.0690917e+17
1.5950379e+17
1.2320916e+17
9.5528656e+16
6.6622883e+16
5.2477474e+16
4.2173369e+16
3.4998394e+16
6.9382713e+16
5.4700476e+16
4.4000322e+16
3.6545526e+16
7.2038995e+16
5.6853807e+16
4.578211e+16
3.806415e+16
7.4572511e+16
5.8916127e+16
4.7495796e+16
3.9530407e+16
3.0446996e+16
2.8182976e+16
2.8014121e+16
2.9876513e+16
3.181292e+16
2.9454499e+16
2.927119e+16
3.1196736e+16
3.3160366e+16
3.0711708e+16
3.0512736e+16
3.2494945e+16
3.4465088e+16
3.1930495e+16
3.17152e+16
3.3748627e+16
3.3827352e+16
4.0045391e+16
4.8838956e+16
6.0661706e+16
3.529027e+16
4.1736761e+16
5.0855358e+16
6.3115722e+16
3.6719258e+16
4.3376437e+16
5.2795715e+16
6.5461638e+16
3.8093321e+16
4.4945427e+16
5.4643541e+16
6.7686089e+16
7.6137137e+16
9.6093124e+16
1.2160858e+17
1.5407497e+17
7.9163384e+16
9.9855457e+16
1.2630901e+17
1.5996483e+17
8.2040267e+16
1.0341601e+17
1.3074149e+17
1.6550335e+17
8.47582e+16
1.0676968e+17
1.3490628e+17
1.7069735e+17
-3.5215699e+17
-2.9435504e+17
-2.4555484e+17
-2.0437504e+17
-3.6511411e+17
-3.0522517e+17
-2.5465852e+17
-2.1198377e+17
-3.7722353e+17
-3.153859e+17
-2.6316983e+17
-2.1909933e+17
-3.8853408e+17
-3.2487845e+17
-2.7112339e+17
-2.2575059e+17
-1.6147918e+17
-1.2176643e+17
-9.0882755e+16
-6.6907445e+16
-1.6752641e+17
-1.2636125e+17
-9.4342197e+16
-6.9480308e+16
-1.7318347e+17
-1.3066166e+17
-9.7581853e+16
-7.1891582e+16
-1.7847368e+17
-1.3468561e+17
-1.0061546e+17
-7.415152e+16
-5.2111424e+16
-4.2643442e+16
-3.4539891e+16
-2.7615427e+16
-5.4133618e+16
-4.4311568e+16
-3.590362e+16
-2.8717993e+16
-5.6030195e+16
-4.5877418e+16
-3.7184815e+16
-2.975462e+16
-5.7808976e+16
-4.734721e+16
-3.8388793e+16
-3.0729892e+16
-1.8833546e+16
-1.0357478e+16
-4.2496736e+15
8.6668725e+13
-1.9602796e+16
-1.0801119e+16
-4.4552565e+15
5.3120502e+13
-2.0327903e+16
-1.122147e+16
-4.6526161e+15
1.7060182e+13
-2.1011664e+16
-1.1620038e+16
-4.8423018e+15
-2.1342665e+13
3.6540093e+15
6.0394376e+15
7.2702378e+15
7.7377925e+15
3.765124e+15
6.2515884e+15
7.5385467e+15
8.0318638e+15
3.864866e+15
6.4464489e+15
7.786547e+15
8.304548e+15
3.9540208e+15
6.6252176e+15
8.0156451e+15
8.5573199e+15
7.7076872e+15
7.4025633e+15
6.9150928e+15
6.3094789e+15
8.0068119e+15
7.6946894e+15
7.1920324e+15
6.5655636e+15
8.2847382e+15
7.9665089e+15
7.4500333e+15
6.8043893e+15
8.5429187e+15
8.2194124e+15
7.6903904e+15
7.0271306e+15
5.6823747e+15
5.0725258e+15
4.4414154e+15
3.7976955e+15
5.9156545e+15
5.2828178e+15
4.6272644e+15
3.9580094e+15
6.1334085e+15
5.4792734e+15
4.801004e+15
4.1079919e+15
6.3366837e+15
5.6628091e+15
4.963447e+15
4.2483135e+15
3.1905703e+15
2.6232973e+15
2.0549727e+15
1.4864283e+15
3.3263108e+15
2.7356765e+15
2.1435966e+15
1.5509454e+15
3.4533874e+15
2.8409571e+15
2.2266648e+15
1.6114563e+15
3.5723488e+15
2.9395683e+15
2.3045147e+15
1.6681975e+15
1.0897001e+15
8.623453e+14
6.3500835e+14
4.0767592e+14
1.1372068e+15
9.0003501e+14
6.6283418e+14
4.2558197e+14
1.181778e+15
9.354066e+14
6.8895011e+14
4.4239981e+14
1.2235928e+15
9.685933e+14
7.1346312e+14
4.581847e+14
2.307067e+16
2.3059839e+16
2.3035282e+16
2.299574e+16
2.3398748e+16
2.3387244e+16
2.3361159e+16
2.3319268e+16
2.3682366e+16
2.367024e+16
2.3642731e+16
2.3598575e+16
2.3926359e+16
2.391359e+16
2.3884636e+16
2.383843e+16
2.2872002e+16
2.246903e+16
2.1612732e+16
1.9895175e+16
2.3188438e+16
2.276549e+16
2.1873612e+16
2.0095075e+16
2.3460957e+16
2.3019006e+16
2.2093396e+16
2.0257306e+16
2.3694299e+16
2.3234252e+16
2.2276702e+16
2.0386416e+16
1.6488323e+16
9.7375021e+15
-3.1044379e+15
-2.7251046e+16
1.6581338e+16
9.637932e+15
-3.5466931e+15
-2.8308897e+16
1.6643097e+16
9.519394e+15
-3.9851664e+15
-2.9320931e+16
1.6678003e+16
9.3858212e+15
-4.416874e+15
-3.0286102e+16
-5.4244084e+16
-6.5413352e+16
-7.8262742e+16
-9.3027414e+16
-5.5969373e+16
-6.7413095e+16
-8.0576901e+16
-9.5701152e+16
-5.7602403e+16
-6.9301625e+16
-8.275783e+16
-9.8216337e+16
-5.9144534e+16
-7.1080628e+16
-8.480855e+16
-1.0057741e+17
-1.1547639e+17
-1.503184e+17
-1.9387947e+17
-2.4831237e+17
-1.1869466e+17
-1.5437696e+17
-1.989831e+17
-2.5471636e+17
-1.2171605e+17
-1.5817933e+17
-2.0375683e+17
-2.606982e+17
-1.2454701e+17
-1.6173484e+17
-2.082134e+17
-2.662755e+17
-3.0557424e+17
-3.6003291e+17
-4.2351021e+17
-4.974927e+17
-3.1334132e+17
-3.690929e+17
-4.3407441e+17
-5.0980664e+17
-3.205891e+17
-3.7754196e+17
-4.4392032e+17
-5.2127743e+17
-3.2734044e+17
-3.8540719e+17
-4.5308106e+17
-5.3194474e+17
2.1290129e+17
1.6422994e+17
1.2695345e+17
9.8514296e+16
2.1851979e+17
1.6866924e+17
1.3047715e+17
1.0132996e+17
2.2377798e+17
1.728302e+17
1.3378574e+17
1.0397851e+17
2.2869019e+17
1.7672295e+17
1.3688591e+17
1.0646444e+17
7.6975819e+16
6.0878344e+16
4.9131193e+16
4.0933399e+16
7.9247597e+16
6.2737514e+16
5.0684342e+16
4.2268558e+16
8.1388867e+16
6.4493535e+16
5.2154182e+16
4.3534269e+16
8.3402227e+16
6.614768e+16
5.3541219e+16
4.4730418e+16
3.5715898e+16
3.3099691e+16
3.2867808e+16
3.4947707e+16
3.6907891e+16
3.4214385e+16
3.3965871e+16
3.6087974e+16