/*--------------------------------*- C++ -*----------------------------------*\
| =========                 |                                                 |
| \\      /  F ield         | OpenFOAM: The Open Source CFD Toolbox           |
|  \\    /   O peration     | Version:  1.4.1-dev                             |
|   \\  /    A nd           | Web:      http://www.openfoam.org               |
|    \\/     M anipulation  |                                                 |
\*---------------------------------------------------------------------------*/

FoamFile
{
    version 2.0;
    format ascii;

    root "/home/cliffoi/OpenFOAM/cliffoi-1.4.1-dev/run/diffusionFoam";
    case "oecd_simplified_2G";
    instance "0";
    local "";

    class volScalarField;
    object phi1;
}

// * * * * * * * * * * * * * * * * * * * * * * * * * * * * * * * * * * * * * //

dimensions      [0 -2 -1 0 0 0 0];

internalField   nonuniform List<scalar> 
9280
(
3.1038109e+11
3.1237089e+11
3.1675706e+11
3.2344537e+11
9.882634e+11
9.9502288e+11
1.0099285e+12
1.0326728e+12
2.3112688e+12
2.3286254e+12
2.3669211e+12
2.4254164e+12
5.0559572e+12
5.0981257e+12
5.1912336e+12
5.3336365e+12
3.4308466e+11
3.9307273e+11
4.6794536e+11
5.6977583e+11
1.0995213e+12
1.2703477e+12
1.5278897e+12
1.8810995e+12
2.597593e+12
3.0402747e+12
3.714407e+12
4.6508755e+12
5.7535547e+12
6.8414428e+12
8.5189087e+12
1.0886455e+13
7.0414616e+11
8.7507455e+11
1.0789207e+12
1.3122569e+12
2.3516865e+12
2.9568757e+12
3.6867337e+12
4.5313595e+12
5.9170417e+12
7.57269e+12
9.603692e+12
1.1993407e+13
1.414642e+13
1.8497977e+13
2.3950189e+13
3.0499365e+13
1.4653507e+12
1.5210358e+12
1.5773229e+12
1.6340889e+12
5.0911998e+12
5.2952364e+12
5.5018773e+12
5.7106687e+12
1.3601972e+13
1.4189971e+13
1.4787202e+13
1.5392344e+13
3.4993155e+13
3.6641906e+13
3.8322551e+13
4.0031362e+13
1.7097353e+12
1.8040205e+12
1.8981199e+12
1.9913545e+12
5.9894112e+12
6.3378351e+12
6.6865181e+12
7.032881e+12
1.6202422e+13
1.721933e+13
1.8241062e+13
1.9259772e+13
4.2326513e+13
4.5222695e+13
4.8146675e+13
5.1074929e+13
2.0685478e+12
2.1304932e+12
2.191176e+12
2.2503615e+12
7.3203411e+12
7.5513808e+12
7.7780521e+12
7.999451e+12
2.0108154e+13
2.079153e+13
2.1463393e+13
2.2120935e+13
5.3523409e+13
5.5500668e+13
5.7449186e+13
5.9360342e+13
2.3412436e+12
2.4551819e+12
2.5572659e+12
2.6455154e+12
8.3398981e+12
8.7679719e+12
9.1526569e+12
9.4863277e+12
2.3133966e+13
2.4412676e+13
2.5566126e+13
2.6570737e+13
6.231071e+13
6.6049505e+13
6.9434129e+13
7.2392844e+13
2.7181983e+12
2.7738779e+12
2.8114478e+12
2.8301546e+12
9.7623346e+12
9.9751832e+12
1.0120659e+13
1.0195903e+13
2.7406084e+13
2.8055434e+13
2.8506083e+13
2.8749501e+13
7.4864277e+13
7.6798955e+13
7.8160038e+13
7.8923383e+13
2.8296096e+12
2.8097912e+12
2.7710387e+12
2.7140406e+12
1.019944e+13
1.0131173e+13
9.9923531e+12
9.7855307e+12
2.8781338e+13
2.8601337e+13
2.821318e+13
2.7624315e+13
7.9077155e+13
7.8621187e+13
7.7566294e+13
7.5933653e+13
2.639816e+12
2.5496908e+12
2.4452685e+12
2.3283935e+12
9.5144856e+12
9.1841477e+12
8.800496e+12
8.3704358e+12
2.6845774e+13
2.5891967e+13
2.478045e+13
2.3531634e+13
7.3754316e+13
7.1068827e+13
6.7926857e+13
6.4386708e+13
2.2011081e+12
2.0656021e+12
1.924156e+12
1.7790781e+12
7.9016468e+12
7.4024002e+12
6.8813437e+12
6.34726e+12
2.2168396e+13
2.0715579e+13
1.9199356e+13
1.7646475e+13
6.0514531e+13
5.6383102e+13
5.2070055e+13
4.7655566e+13
1.6720523e+12
1.6040499e+12
1.536309e+12
1.4690324e+12
5.9537261e+12
5.7038649e+12
5.4551763e+12
5.2084318e+12
1.6504093e+13
1.5779521e+13
1.5059227e+13
1.4345564e+13
4.4413477e+13
4.2359503e+13
4.0320495e+13
3.8303571e+13
1.3867479e+12
1.2908343e+12
1.1973526e+12
1.106771e+12
4.9069726e+12
4.5562202e+12
4.2150708e+12
3.8852744e+12
1.3475034e+13
1.2464875e+13
1.1485402e+13
1.0541822e+13
3.5847958e+13
3.3007674e+13
3.0264032e+13
2.7632248e+13
1.0372426e+12
9.8659404e+11
9.3727519e+11
8.8934149e+11
3.6327816e+12
3.4491538e+12
3.2706552e+12
3.097483e+12
9.8222105e+12
9.3001594e+12
8.7940106e+12
8.3043035e+12
2.5634748e+13
2.4190083e+13
2.2793949e+13
2.1447745e+13
8.201731e+11
7.3431214e+11
6.5442778e+11
5.8059591e+11
2.8480658e+12
2.5396752e+12
2.2539598e+12
1.9910707e+12
7.6009935e+12
6.7365736e+12
5.9408198e+12
5.213587e+12
1.9521189e+13
1.7170855e+13
1.5024355e+13
1.3079111e+13
5.0025675e+11
4.1856691e+11
3.4738474e+11
2.8599241e+11
1.7063538e+12
1.418805e+12
1.1700189e+12
9.5703091e+11
4.4315622e+12
3.6498126e+12
2.9806683e+12
2.4141586e+12
1.1005651e+13
8.9589069e+12
7.2298629e+12
5.7857582e+12
2.3581366e+11
1.9461252e+11
1.5942315e+11
1.2952356e+11
7.8427296e+11
6.4344095e+11
5.2404212e+11
4.2335472e+11
1.9599077e+12
1.59358e+12
1.2864153e+12
1.0302948e+12
4.643822e+12
3.7348114e+12
2.9826257e+12
2.3638188e+12
1.0615671e+11
8.756273e+10
7.1428693e+10
5.7389527e+10
3.4527156e+11
2.8355174e+11
2.3035956e+11
1.8438909e+11
8.3395042e+11
6.8029598e+11
5.4920939e+11
4.3707506e+11
1.8958837e+12
1.5339983e+12
1.2289516e+12
9.7115565e+11
4.5916493e+10
3.6345132e+10
2.7669872e+10
1.9702887e+10
1.4707481e+11
1.1612248e+11
8.821736e+10
6.2711368e+10
3.4697903e+11
2.7288651e+11
2.0662897e+11
1.4650484e+11
7.6651918e+11
5.9995766e+11
4.5245634e+11
3.1977636e+11
1.4502389e+10
1.1592968e+10
8.7383352e+09
5.9278763e+09
4.6125754e+10
3.685828e+10
2.7774489e+10
1.8838256e+10
1.0763806e+11
8.5961451e+10
6.4747617e+10
4.3903663e+10
2.3461986e+11
1.8723632e+11
1.4095316e+11
9.5544733e+10
1.0674327e+13
1.0773568e+13
1.0992876e+13
1.1328807e+13
2.1785245e+13
2.2011159e+13
2.2510886e+13
2.3277707e+13
4.2791153e+13
4.328552e+13
4.4380293e+13
4.6063581e+13
8.0385641e+13
8.1417087e+13
8.3704076e+13
8.72284e+13
1.2321534e+13
1.4916442e+13
1.8976553e+13
2.4814546e+13
2.5549424e+13
3.1548697e+13
4.1094505e+13
5.5117556e+13
5.1064508e+13
6.4425537e+13
8.6094181e+13
1.187112e+14
9.77322e+13
1.2616008e+14
1.7325318e+14
2.4610026e+14
3.3026976e+13
4.4258913e+13
5.8689597e+13
7.645798e+13
7.533831e+13
1.037873e+14
1.4143607e+14
1.8918495e+14
1.6709543e+14
2.3743272e+14
3.3381318e+14
4.6047379e+14
3.5767595e+14
5.2606946e+14
7.6640928e+14
1.0960681e+15
8.8935173e+13
9.3533401e+13
9.8240822e+13
1.0304707e+14
2.2366902e+14
2.3644669e+14
2.4959688e+14
2.6309159e+14
5.5516174e+14
5.9048668e+14
6.2708302e+14
6.648795e+14
1.3533508e+15
1.4501788e+15
1.5513569e+15
1.6567304e+15
1.0952831e+14
1.1775766e+14
1.2611335e+14
1.3452433e+14
2.8137822e+14
3.047731e+14
3.2869069e+14
3.5291389e+14
7.1641378e+14
7.8297555e+14
8.5161378e+14
9.2165762e+14
1.8015695e+15
1.9910127e+15
2.1886067e+15
2.3922684e+15
1.4158939e+14
1.4731072e+14
1.5296316e+14
1.5851982e+14
3.7336892e+14
3.8998561e+14
4.0644735e+14
4.2266829e+14
9.8118605e+14
1.029722e+15
1.0779535e+15
1.125597e+15
2.5667973e+15
2.7097523e+15
2.8523302e+15
2.9935496e+15
1.671154e+14
1.7804746e+14
1.8797237e+14
1.9667095e+14
4.4780997e+14
4.798832e+14
5.0905142e+14
5.3463937e+14
1.199581e+15
1.2941596e+15
1.3801596e+15
1.4554791e+15
3.2132225e+15
3.4941726e+15
3.7488119e+15
3.9705413e+15
2.039596e+14
2.096944e+14
2.1377195e+14
2.1612771e+14
5.561009e+14
5.7302795e+14
5.8514594e+14
5.9230025e+14
1.5185153e+15
1.568168e+15
1.603788e+15
1.6250954e+15
4.1548213e+15
4.2990141e+15
4.4020175e+15
4.46383e+15
2.16733e+14
2.1559143e+14
2.1273584e+14
2.0822595e+14
5.9443869e+14
5.9159417e+14
5.8387096e+14
5.714363e+14
1.6320912e+15
1.6249786e+15
1.6041061e+15
1.5699365e+15
4.4851432e+15
4.4670175e+15
4.4106651e+15
4.3173476e+15
2.0214726e+14
1.9461079e+14
1.8575343e+14
1.7573813e+14
5.54518e+14
5.3340751e+14
5.0846671e+14
4.8013589e+14
1.5230449e+15
1.4641407e+15
1.3941106e+15
1.3140712e+15
4.188384e+15
4.0252613e+15
3.8298318e+15
3.6045763e+15
1.6475334e+14
1.5301063e+14
1.4074024e+14
1.2818397e+14
4.4893952e+14
4.1548617e+14
3.8045924e+14
3.4459612e+14
1.2254202e+15
1.1298692e+15
1.0294416e+15
9.2641815e+14
3.3528935e+15
3.0793615e+15
2.7898842e+15
2.4916239e+15
1.1897654e+14
1.1315029e+14
1.0737523e+14
1.016732e+14
3.1832889e+14
3.0172754e+14
2.8529891e+14
2.6911157e+14
8.5099765e+14
8.0338608e+14
7.5635361e+14
7.1012308e+14
2.273099e+15
2.1352951e+15
1.9994404e+15
1.8662958e+15
9.4745946e+13
8.6763742e+13
7.9087506e+13
7.176195e+13
2.4949525e+14
2.2699286e+14
2.0546966e+14
1.8505812e+14
6.5426859e+14
5.9055189e+14
5.3002112e+14
4.7307103e+14
1.7060564e+15
1.5245972e+15
1.3537667e+15
1.1947317e+15
6.6233914e+13
6.2250617e+13
5.8416133e+13
5.4733887e+13
1.6976368e+14
1.58793e+14
1.4828258e+14
1.3823987e+14
4.3077903e+14
4.0061662e+14
3.7189317e+14
3.4461988e+14
1.0780207e+15
9.954064e+14
9.1734773e+14
8.4382922e+14
4.9486694e+13
4.3142359e+13
3.7403241e+13
3.2254177e+13
1.2400352e+14
1.0697687e+14
9.1750915e+13
7.8253863e+13
3.0620904e+14
2.6088562e+14
2.2092433e+14
1.8601438e+14
7.4114948e+14
6.2204197e+14
5.1885747e+14
4.3031608e+14
2.6822861e+13
2.1540657e+13
1.7146382e+13
1.3533486e+13
6.4193095e+13
5.0755478e+13
3.9774507e+13
3.0907638e+13
1.5018574e+14
1.1664568e+14
8.9801181e+13
6.8569122e+13
3.4107022e+14
2.5954599e+14
1.958537e+14
1.4665483e+14
1.0721811e+13
8.5165004e+12
6.7186864e+12
5.2617607e+12
2.4131058e+13
1.8903466e+13
1.471193e+13
1.1370949e+13
5.2671479e+13
4.0633183e+13
3.1155851e+13
2.3736881e+13
1.1065482e+14
8.3948654e+13
6.3340017e+13
4.7518267e+13
4.1766652e+12
3.348394e+12
2.6593879e+12
2.0848219e+12
8.9234877e+12
7.0815489e+12
5.570955e+12
4.3291357e+12
1.8398171e+13
1.4440609e+13
1.1243579e+13
8.6547029e+12
3.6346892e+13
2.8196445e+13
2.1715155e+13
1.6548084e+13
1.6347724e+12
1.2726066e+12
9.5534255e+11
6.7273891e+11
3.3702075e+12
2.6079044e+12
1.9478691e+12
1.3661523e+12
6.6853381e+12
5.1397944e+12
3.8180125e+12
2.666144e+12
1.2677779e+13
9.680395e+12
7.1494466e+12
4.9695355e+12
4.9281861e+11
3.9296707e+11
2.9564634e+11
2.0032679e+11
9.9905602e+11
7.9591094e+11
5.9838908e+11
4.0529097e+11
1.9460837e+12
1.5488457e+12
1.1636028e+12
7.877512e+11
3.6202032e+12
2.8782331e+12
2.1606309e+12
1.4620219e+12
1.4336305e+14
1.4539471e+14
1.4990555e+14
1.5687395e+14
2.4080181e+14
2.4453718e+14
2.5284243e+14
2.6570513e+14
3.7796325e+14
3.8429664e+14
3.9839748e+14
4.2028954e+14
5.510165e+14
5.6081256e+14
5.8264765e+14
6.1661722e+14
1.777142e+14
2.349094e+14
3.3186371e+14
4.863696e+14
3.0431161e+14
4.1180248e+14
5.9841918e+14
9.0522813e+14
4.8622449e+14
6.7235381e+14
1.0030243e+15
1.5634764e+15
7.1922546e+14
1.0122452e+15
1.5430353e+15
2.4664477e+15
7.3153452e+14
1.1174698e+15
1.6948564e+15
2.5284561e+15
1.4107413e+15
2.2438661e+15
3.5581063e+15
5.5731957e+15
2.5222259e+15
4.1783542e+15
6.9426526e+15
1.1476724e+16
4.0989585e+15
7.0414643e+15
1.2222824e+16
2.1317072e+16
3.215113e+15
3.4765467e+15
3.7528805e+15
4.043943e+15
7.3482609e+15
8.0347198e+15
8.7717663e+15
9.5603438e+15
1.580511e+16
1.7514307e+16
1.9388875e+16
2.143831e+16
3.0789798e+16
3.4628901e+16
3.8953675e+16
4.3815195e+16
4.4484547e+15
4.986825e+15
5.5574219e+15
6.1539212e+15
1.0673443e+16
1.2192457e+16
1.3841254e+16
1.560301e+16
2.439529e+16
2.8580764e+16
3.3294536e+16
3.8517889e+16
5.1036427e+16
6.1786849e+16
7.4582158e+16
8.9645077e+16
6.6711464e+15
7.097503e+15
7.5247985e+15
7.9493806e+15
1.7159699e+16
1.8456247e+16
1.9765852e+16
2.1073398e+16
4.329455e+16
4.7356283e+16
5.1530011e+16
5.574634e+16
1.0435626e+17
1.174763e+17
1.3163104e+17
1.4663009e+17
8.6108287e+15
9.4545541e+15
1.0212512e+16
1.0864156e+16
2.3113154e+16
2.5689527e+16
2.7957482e+16
2.9859276e+16
6.2347642e+16
7.0409252e+16
7.7183996e+16
8.2608328e+16
1.7114288e+17
1.9675012e+17
2.1614691e+17
2.3056644e+17
1.1397973e+16
1.1809696e+16
1.2100053e+16
1.2272667e+16
3.1377154e+16
3.2518573e+16
3.3304106e+16
3.3758918e+16
8.6757399e+16
8.9757978e+16
9.1744411e+16
9.283754e+16
2.4098325e+17
2.4815399e+17
2.5265623e+17
2.5492142e+17
1.2332391e+16
1.228414e+16
1.2132196e+16
1.187992e+16
3.3907317e+16
3.3769601e+16
3.3360492e+16
3.2688691e+16
9.3135613e+16
9.2711206e+16
9.1610972e+16
8.9856619e+16
2.552615e+17
2.5388899e+17
2.5093148e+17
2.4644084e+17
1.1529836e+16
1.1084041e+16
1.0544956e+16
9.9163783e+15
3.1757269e+16
3.0564849e+16
2.9107684e+16
2.7382921e+16
8.7446403e+16
8.4357122e+16
8.054712e+16
7.5961549e+16
2.4039785e+17
2.3271253e+17
2.2322019e+17
2.1167328e+17
9.2048301e+15
8.4210479e+15
7.581352e+15
6.7083502e+15
2.5393433e+16
2.3154594e+16
2.0703007e+16
1.8106003e+16
7.0542237e+16
6.4246426e+16
5.708199e+16
4.9172873e+16
1.9772848e+17
1.8092862e+17
1.6067811e+17
1.3621037e+17
6.0665192e+15
5.6621302e+15
5.2644486e+15
4.8762725e+15
1.6177743e+16
1.4963657e+16
1.377433e+16
1.2621235e+16
4.3111583e+16
3.93043e+16
3.5611816e+16
3.2086273e+16
1.145283e+17
1.0140373e+17
8.9213239e+16
7.808745e+16
4.41167e+15
3.8910828e+15
3.4073178e+15
2.9636249e+15
1.1253736e+16
9.7476862e+15
8.3763497e+15
7.146453e+15
2.798345e+16
2.36078e+16
1.9758266e+16
1.642464e+16
6.5707159e+16
5.3309955e+16
4.3021349e+16
3.4574374e+16
2.6433048e+15
2.4188733e+15
2.2090403e+15
2.01353e+15
6.2792855e+15
5.6803755e+15
5.1284875e+15
4.6217029e+15
1.4154362e+16
1.2617925e+16
1.1230069e+16
9.9802598e+15
2.909403e+16
2.5484329e+16
2.2306339e+16
1.9513248e+16
1.743445e+15
1.4369452e+15
1.1772231e+15
9.5921463e+14
3.93172e+15
3.1705232e+15
2.5430701e+15
2.030324e+15
8.3107506e+15
6.5331886e+15
5.1160849e+15
3.9938166e+15
1.5867406e+16
1.214102e+16
9.2772861e+15
7.0832195e+15
7.4420864e+14
5.5338512e+14
4.0838715e+14
2.9932858e+14
1.5375761e+15
1.1145359e+15
8.0295306e+14
5.7533589e+14
2.946671e+15
2.0797976e+15
1.4621051e+15
1.0242548e+15
5.0967643e+15
3.5097023e+15
2.4135369e+15
1.6575798e+15
2.2153129e+14
1.6509383e+14
1.2246489e+14
9.0402886e+13
4.1732441e+14
3.0535852e+14
2.2263866e+14
1.6170921e+14
7.2851379e+14
5.2375595e+14
3.7568854e+14
2.6877013e+14
1.1592406e+15
8.2109278e+14
5.8099167e+14
4.1047766e+14
6.8206908e+13
5.2276191e+13
3.9809391e+13
3.0025812e+13
1.2035325e+14
9.1147605e+13
6.8647466e+13
5.1256938e+13
1.9752602e+14
1.4795994e+14
1.1031562e+14
8.1617179e+13
2.9857382e+14
2.216639e+14
1.6392258e+14
1.2038473e+14
2.2810244e+13
1.7295704e+13
1.2698357e+13
8.7849837e+12
3.862029e+13
2.9084301e+13
2.1230697e+13
1.4620447e+13
6.1039031e+13
4.5684415e+13
3.3175014e+13
2.2751144e+13
8.9494039e+13
6.6649789e+13
4.8197511e+13
3.2943321e+13
6.3867003e+12
5.0722949e+12
3.804595e+12
2.5731512e+12
1.0608085e+13
8.4161082e+12
6.3077302e+12
4.2640159e+12
1.6477946e+13
1.306072e+13
9.7818155e+12
6.6095841e+12
2.3825561e+13
1.8870232e+13
1.4124747e+13
9.5407313e+12
7.4473302e+14
7.5848112e+14
7.8914797e+14
8.3692136e+14
9.3779525e+14
9.5540593e+14
9.9469988e+14
1.0559439e+15
1.1132395e+15
1.1342179e+15
1.1810266e+15
1.253984e+15
1.2636578e+15
1.2874013e+15
1.3403746e+15
1.4229272e+15
9.8149896e+14
1.3974716e+15
2.16053e+15
3.5106935e+15
1.2414201e+15
1.7765397e+15
2.7624494e+15
4.5161799e+15
1.4749367e+15
2.1124208e+15
3.2867225e+15
5.3743025e+15
1.6728815e+15
2.3933815e+15
3.7185204e+15
6.069174e+15
5.9497571e+15
1.047303e+16
1.8739927e+16
3.399337e+16
7.7026473e+15
1.3647874e+16
2.4572763e+16
4.4803175e+16
9.1624332e+15
1.6213267e+16
2.9119162e+16
5.287735e+16
1.0322963e+16
1.8212736e+16
3.2593043e+16
5.8934807e+16
5.103337e+16
5.8110296e+16
6.6288431e+16
7.5735537e+16
6.7395345e+16
7.6761644e+16
8.7562203e+16
1.0000526e+17
7.9187071e+16
9.006439e+16
1.0257227e+17
1.1694102e+17
8.7944048e+16
9.9919643e+16
1.1367061e+17
1.2944514e+17
9.0190123e+16
1.1290425e+17
1.41758e+17
1.7853885e+17
1.1898009e+17
1.4858869e+17
1.8583203e+17
2.3267782e+17
1.3878759e+17
1.7270707e+17
2.1514671e+17
2.6823339e+17
1.5339601e+17
1.9050136e+17
2.3682874e+17
2.946611e+17
2.1819247e+17
2.5668238e+17
3.0259561e+17
3.5752496e+17
2.8229671e+17
3.2970957e+17
3.8522592e+17
4.5020221e+17
3.2414676e+17
3.7736993e+17
4.3946299e+17
5.1189583e+17
3.5545704e+17
4.1325702e+17
4.8061292e+17
5.5910286e+17
4.2463485e+17
4.7520472e+17
5.1252855e+17
5.3964869e+17
5.2755927e+17
5.8651032e+17
6.3033228e+17
6.6230695e+17
5.9788618e+17
6.6339098e+17
7.1207703e+17
7.4759376e+17
6.5219403e+17
7.2309558e+17
7.7577287e+17
8.1418167e+17
5.5878639e+17
5.7157043e+17
5.7919357e+17
5.8252087e+17
6.8491271e+17
7.0001082e+17
7.0898725e+17
7.1285887e+17
7.7269537e+17
7.8945271e+17
7.9941063e+17
8.0370444e+17
8.4131281e+17
8.5941825e+17
8.701797e+17
8.7483356e+17
5.82165e+17
5.7853812e+17
5.7188626e+17
5.6231028e+17
7.1235144e+17
7.0795546e+17
6.9996441e+17
6.884985e+17
8.0314517e+17
7.9828056e+17
7.8943688e+17
7.7674493e+17
8.7426267e+17
8.6906191e+17
8.5958334e+17
8.4596418e+17
5.4977555e+17
5.3411149e+17
5.1500113e+17
4.9195964e+17
6.7351603e+17
6.5481365e+17
6.3201569e+17
6.045524e+17
7.6015253e+17
7.3942479e+17
7.1413243e+17
6.8362777e+17
8.2814041e+17
8.0584694e+17
7.7860519e+17
7.4569726e+17
4.6429959e+17
4.3107927e+17
3.9102743e+17
3.4243431e+17
5.716258e+17
5.321618e+17
4.8474636e+17
4.2754394e+17
6.4700719e+17
6.0305781e+17
5.5018538e+17
4.863188e+17
7.0612568e+17
6.5855653e+17
6.0124261e+17
5.319226e+17
2.839709e+17
2.3662195e+17
1.9758123e+17
1.6530003e+17
3.5933942e+17
3.0271001e+17
2.5502401e+17
2.1488784e+17
4.1006084e+17
3.46564e+17
2.9291823e+17
2.476031e+17
4.4907538e+17
3.8002332e+17
3.2162156e+17
2.7223174e+17
1.3225118e+17
1.022441e+17
7.92253e+16
6.1500963e+16
1.7317785e+17
1.3466263e+17
1.04743e+17
8.1493628e+16
2.0033351e+17
1.5644199e+17
1.2216068e+17
9.5384558e+16
2.2064774e+17
1.7265767e+17
1.3509872e+17
1.0570054e+17
5.0592854e+16
4.3606497e+16
3.7609771e+16
3.2459802e+16
6.7094078e+16
5.7844917e+16
4.9888315e+16
4.3043968e+16
7.8721264e+16
6.798888e+16
5.8732439e+16
5.0750433e+16
8.7366163e+16
7.5542049e+16
6.5330661e+16
5.6513664e+16
2.5878709e+16
1.9384622e+16
1.4540659e+16
1.0923596e+16
3.4287468e+16
2.5639261e+16
1.9190709e+16
1.4381356e+16
4.051473e+16
3.0365325e+16
2.2771281e+16
1.7090836e+16
4.5192454e+16
3.3939097e+16
2.5499056e+16
1.9171412e+16
7.7217719e+15
5.2278566e+15
3.5420505e+15
2.4007895e+15
1.0132051e+16
6.8329249e+15
4.6110831e+15
3.1128967e+15
1.2059146e+16
8.1421406e+15
5.498839e+15
3.7138352e+15
1.3554219e+16
9.1696858e+15
6.2036779e+15
4.1963724e+15
1.6604549e+15
1.1646767e+15
8.167973e+14
5.7238159e+14
2.1449791e+15
1.4992423e+15
1.0478387e+15
7.3185974e+14
2.5594539e+15
1.7888593e+15
1.249999e+15
8.7276654e+14
2.8957064e+15
2.0260761e+15
1.417101e+15
9.9025208e+14
4.1354194e+14
3.0522757e+14
2.245108e+14
1.6407951e+14
5.2725597e+14
3.8816221e+14
2.8482331e+14
2.0768929e+14
6.2852578e+14
4.6252298e+14
3.3923355e+14
2.4724856e+14
7.1358575e+14
5.253883e+14
3.8551187e+14
2.8108321e+14
1.2149463e+14
9.0184709e+13
6.503556e+13
4.4353486e+13
1.5349867e+14
1.137614e+14
8.1926783e+13
5.581213e+13
1.8265898e+14
1.3532177e+14
9.7420888e+13
6.6348702e+13
2.0771367e+14
1.5391746e+14
1.1082795e+14
7.5489829e+13
3.2046961e+13
2.5368829e+13
1.89818e+13
1.2818451e+13
4.0307131e+13
3.1899676e+13
2.386386e+13
1.6113423e+13
4.7910599e+13
3.7914653e+13
2.8362175e+13
1.9150187e+13
5.4514528e+13
4.3142038e+13
3.2273256e+13
2.1791253e+13
1.3895809e+15
1.415569e+15
1.4735451e+15
1.5638784e+15
1.4953901e+15
1.5232406e+15
1.585367e+15
1.6821549e+15
1.5861072e+15
1.6155575e+15
1.6812499e+15
1.7835853e+15
1.6658619e+15
1.6967319e+15
1.7655891e+15
1.87285e+15
1.8373258e+15
2.6248102e+15
4.0709557e+15
6.6313552e+15
1.9750902e+15
2.8181278e+15
4.3646541e+15
7.0992787e+15
2.0932768e+15
2.9841659e+15
4.6174286e+15
7.5032627e+15
2.1974271e+15
3.1309156e+15
4.8416613e+15
7.8631591e+15
1.1254415e+16
1.9807141e+16
3.5352749e+16
6.3747699e+16
1.2029996e+16
2.1138059e+16
3.7667876e+16
6.7816388e+16
1.2702513e+16
2.2298764e+16
3.9700971e+16
7.1417883e+16
1.3304528e+16
2.3343391e+16
4.1541064e+16
7.4696059e+16
9.4929219e+16
1.0779278e+17
1.2255374e+17
1.3947637e+17
1.0087886e+17
1.1451419e+17
1.3015625e+17
1.480841e+17
1.0617827e+17
1.2051183e+17
1.3695271e+17
1.5579377e+17
1.1102134e+17
1.2599917e+17
1.4317794e+17
1.6286343e+17
1.6515511e+17
2.0490078e+17
2.5448201e+17
3.1632674e+17
1.7528111e+17
2.1736011e+17
2.6983282e+17
3.3526203e+17
1.8437278e+17
2.2858208e+17
2.8370215e+17
3.5242186e+17
1.9272162e+17
2.3890566e+17
2.9648317e+17
3.6826118e+17
3.812927e+17
4.4302795e+17
5.1493787e+17
5.987e+17
4.0397192e+17
4.6925178e+17
5.4527609e+17
6.33815e+17
4.2457698e+17
4.9312376e+17
5.7294573e+17
6.6589976e+17
4.4362215e+17
5.1521111e+17
5.9857197e+17
6.9564297e+17
6.9800443e+17
7.7362613e+17
8.2979458e+17
8.7073439e+17
7.3876352e+17
8.1867303e+17
8.7801534e+17
9.2125944e+17
7.760716e+17
8.5995111e+17
9.2223477e+17
9.6761714e+17
8.1068821e+17
8.9827381e+17
9.6330538e+17
1.0106872e+18
8.9964393e+17
9.1893413e+17
9.3040677e+17
9.3538691e+17
9.5179148e+17
9.7216571e+17
9.8429195e+17
9.8957487e+17
9.9965719e+17
1.0210407e+18
1.0337766e+18
1.0393422e+18
1.0441387e+18
1.0664676e+18
1.0797743e+18
1.0856038e+18
9.348201e+17
9.2934224e+17
9.193274e+17
9.0491784e+17
9.8901637e+17
9.8328911e+17
9.7278708e+17
9.5765719e+17
1.0387911e+18
1.0328297e+18
1.0218705e+18
1.0060649e+18
1.0850574e+18
1.0788728e+18
1.0674799e+18
1.0510348e+18
8.860384e+17
8.6239696e+17
8.3347126e+17
7.984818e+17
9.3781464e+17
9.1294352e+17
8.8248309e+17
8.4559939e+17
9.8532009e+17
9.5929896e+17
9.2740648e+17
8.8875985e+17
1.0294375e+18
1.0023321e+18
9.6909253e+17
9.2879153e+17
7.5634937e+17
7.0563511e+17
6.444597e+17
5.7039725e+17
8.0114081e+17
7.4757514e+17
6.8290482e+17
6.0455553e+17
8.4214209e+17
7.8593632e+17
7.1803712e+17
6.3573388e+17
8.8015237e+17
8.2148041e+17
7.5057078e+17
6.6458676e+17
4.8181799e+17
4.0795752e+17
3.4546176e+17
2.9258516e+17
5.1079755e+17
4.326039e+17
3.6642893e+17
3.1042797e+17
5.3720435e+17
4.5502328e+17
3.8546736e+17
3.2659953e+17
5.6162017e+17
4.7573352e+17
4.0303773e+17
3.4150939e+17
2.3733219e+17
1.8588919e+17
1.455945e+17
1.1402719e+17
2.5189758e+17
1.9738487e+17
1.5467027e+17
1.2119423e+17
2.6506649e+17
2.0774821e+17
1.6282767e+17
1.2761645e+17
2.7719198e+17
2.1727518e+17
1.7031414e+17
1.3350012e+17
9.4321749e+16
8.1606042e+16
7.0618128e+16
6.1124852e+16
1.0028869e+17
8.6795048e+16
7.5131754e+16
6.5052145e+16
1.0562307e+17
9.1425544e+16
7.9152289e+16
6.8544141e+16
1.1050337e+17
9.5657242e+16
8.2822474e+16
7.1728264e+16
4.8927679e+16
3.6788715e+16
2.7673064e+16
2.0830239e+16
5.2097883e+16
3.9197919e+16
2.9504868e+16
2.2223953e+16
5.4908733e+16
4.1326692e+16
3.1118097e+16
2.3447516e+16
5.7467109e+16
4.3259793e+16
3.2579641e+16
2.4553465e+16
1.4747933e+16
9.9923363e+15
6.770007e+15
4.5857521e+15
1.5747935e+16
1.0679864e+16
7.242586e+15
4.9104161e+15
1.6622631e+16
1.1279022e+16
7.6530691e+15
5.1916099e+15
1.7410982e+16
1.1817354e+16
8.0207661e+15
5.4427639e+15
3.1682697e+15
2.2192612e+15
1.5538489e+15
1.0868751e+15
3.3955044e+15
2.3803793e+15
1.6679898e+15
1.1676188e+15
3.5918592e+15
2.5193403e+15
1.7662823e+15
1.2370665e+15
3.7667838e+15
2.6428436e+15
1.8534497e+15
1.2985296e+15
7.8385489e+14
5.7753742e+14
4.2405562e+14
3.0937049e+14
8.426524e+14
6.2123335e+14
4.5639952e+14
3.3314395e+14
8.9318229e+14
6.5876339e+14
4.8416826e+14
3.535495e+14
9.3782874e+14
6.9187692e+14
5.0863826e+14
3.7151097e+14
2.2872786e+14
1.6955706e+14
1.2213043e+14
8.3210862e+13
2.4641297e+14
1.8273508e+14
1.3166435e+14
8.9729646e+13
2.6159094e+14
1.9404445e+14
1.3984643e+14
9.5324306e+13
2.7493921e+14
2.0398344e+14
1.4703287e+14
1.0023593e+14
6.0097197e+13
4.7563003e+13
3.5582094e+13
2.4026103e+13
6.4812472e+13
5.129787e+13
3.8377881e+13
2.591462e+13
6.8859382e+13
5.450338e+13
4.0777436e+13
2.7535497e+13
7.2411529e+13
5.7316707e+13
4.2883252e+13
2.895789e+13
1.7375485e+15
1.7697078e+15
1.8414399e+15
1.9531763e+15
1.8030197e+15
1.8363664e+15
1.9107466e+15
2.0266063e+15
1.8634091e+15
1.8978574e+15
1.9746943e+15
2.0943798e+15
1.9194079e+15
1.9548813e+15
2.0340044e+15
2.1572503e+15
2.291285e+15
3.2635629e+15
5.0450454e+15
8.1907787e+15
2.3771849e+15
3.3852477e+15
5.2320949e+15
8.4928437e+15
2.4565307e+15
3.4978227e+15
5.4054218e+15
8.7731794e+15
2.5301717e+15
3.6024008e+15
5.566588e+15
9.034071e+15
1.3854606e+16
2.4301547e+16
4.3235055e+16
7.7724354e+16
1.4363015e+16
2.5189201e+16
4.4807747e+16
8.0541125e+16
1.4835525e+16
2.6015258e+16
4.6272968e+16
8.3167949e+16
1.52756e+16
2.6785129e+16
4.7639299e+16
8.56186e+16
1.1550543e+17
1.3108295e+17
1.4894893e+17
1.6942125e+17
1.1968128e+17
1.3581881e+17
1.5432668e+17
1.755341e+17
1.2357781e+17
1.4023858e+17
1.5934626e+17
1.8124068e+17
1.2721397e+17
1.4436331e+17
1.6403107e+17
1.8656699e+17
2.0047191e+17
2.4849815e+17
3.0836964e+17
3.8300423e+17
2.0769908e+17
2.5744736e+17
3.1946382e+17
3.9677014e+17
2.1444713e+17
2.658051e+17
3.2982682e+17
4.0963113e+17
2.2074601e+17
2.7360722e+17
3.3950169e+17
4.2163898e+17
4.6136119e+17
5.3579419e+17
6.2246451e+17
7.233867e+17
4.779299e+17
5.5502394e+17
6.4479118e+17
7.4931774e+17
4.9341167e+17
5.7299407e+17
6.6565745e+17
7.7355484e+17
5.0786724e+17
5.8977374e+17
6.8514209e+17
7.9618784e+17
8.429919e+17
9.3404673e+17
1.001652e+18
1.0509074e+18
8.73191e+17
9.6749396e+17
1.0375095e+18
1.08852e+18
9.0141968e+17
9.9876085e+17
1.0710312e+18
1.1236834e+18
9.2778076e+17
1.0279597e+18
1.102336e+18
1.1565215e+18
1.085682e+18
1.108897e+18
1.1227383e+18
1.1288137e+18
1.1245339e+18
1.1485787e+18
1.1629198e+18
1.1692236e+18
1.1608565e+18
1.1856767e+18
1.200484e+18
1.2069997e+18
1.1947766e+18
1.2203202e+18
1.2355617e+18
1.2422736e+18
1.1282688e+18
1.121871e+18
1.1100661e+18
1.0930153e+18
1.1686775e+18
1.1620763e+18
1.1498813e+18
1.1322582e+18
1.2064502e+18
1.1996559e+18
1.1870928e+18
1.1689308e+18
1.2417189e+18
1.2347421e+18
1.2218327e+18
1.2031649e+18
1.0706121e+18
1.0424837e+18
1.0079754e+18
9.6611927e+17
1.109095e+18
1.0800031e+18
1.0443018e+18
1.0009853e+18
1.1450529e+18
1.1150562e+18
1.0782357e+18
1.0335504e+18
1.1786171e+18
1.147773e+18
1.1099051e+18
1.0639398e+18
9.155834e+17
8.5460127e+17
7.8087579e+17
6.9145307e+17
9.4867055e+17
8.855244e+17
8.0916394e+17
7.1652619e+17
9.7956996e+17
9.1439905e+17
8.355749e+17
7.3993288e+17
1.0084026e+18
9.4134023e+17
8.6021567e+17
7.6176953e+17
5.84345e+17
4.950006e+17
4.1937591e+17
3.5536667e+17
6.0554863e+17
5.1297397e+17
4.3461348e+17
3.6828729e+17
6.2534117e+17
5.2974952e+17
4.4883403e+17
3.8034416e+17
6.4380543e+17
5.4539862e+17
4.6209911e+17
3.9159038e+17
2.8845382e+17
2.2611625e+17
1.7725547e+17
1.3895022e+17
2.9895094e+17
2.3435356e+17
1.837199e+17
1.4402345e+17
3.0874478e+17
2.4203749e+17
1.8974877e+17
1.4875377e+17
3.1787953e+17
2.4920371e+17
1.953709e+17
1.531645e+17
1.1502066e+17
9.9571808e+16
8.6215509e+16
7.4670078e+16
1.1922396e+17
1.0321314e+17
8.937069e+16
7.7404757e+16
1.231424e+17
1.0660717e+17
9.231112e+16
7.995288e+16
1.267958e+17
1.0977141e+17
9.5052261e+16
8.2328118e+16
5.9828344e+16
4.5041528e+16
3.3924856e+16
2.5569925e+16
6.2022112e+16
4.6695686e+16
3.5172785e+16
2.6512109e+16
6.4065656e+16
4.8235996e+16
3.6334359e+16
2.7388721e+16
6.59703e+16
4.9671353e+16
3.7416575e+16
2.820527e+16
1.8134209e+16
1.2310182e+16
8.3566666e+15
5.6717066e+15
1.8803876e+16
1.2765947e+16
8.6668995e+15
5.8828666e+15
1.9426583e+16
1.3189463e+16
8.9549689e+15
6.0787871e+15
2.0006459e+16
1.3583709e+16
9.2230271e+15
6.2610209e+15
3.9259167e+15
2.7549801e+15
1.9324445e+15
1.3541274e+15
4.0724946e+15
2.8581339e+15
2.0050148e+15
1.4051352e+15
4.2083872e+15
2.9536921e+15
2.072186e+15
1.452308e+15
4.3347324e+15
3.0424973e+15
2.1345811e+15
1.4961051e+15
9.7815025e+14
7.2174002e+14
5.3067662e+14
3.8766745e+14
1.0150988e+15
7.4907496e+14
5.5082782e+14
4.0242554e+14
1.0492429e+15
7.7431673e+14
5.6942258e+14
4.1603432e+14
1.0809291e+15
7.9773115e+14
5.8666368e+14
4.2864703e+14
2.8693379e+14
2.1290681e+14
1.5348025e+14
1.0463986e+14
2.9788089e+14
2.2104501e+14
1.5935664e+14
1.0865173e+14
3.0796949e+14
2.2854114e+14
1.64767e+14
1.1234408e+14
3.1731622e+14
2.3548381e+14
1.6977647e+14
1.1576205e+14
7.5595694e+13
5.9838252e+13
4.4770473e+13
3.0232551e+13
7.8495745e+13
6.2134536e+13
4.6488947e+13
3.1393173e+13
8.1164404e+13
6.4247421e+13
4.8070069e+13
3.2460989e+13
8.3634497e+13
6.6202988e+13
4.9533405e+13
3.3449232e+13
1.971455e+15
2.007883e+15
2.0891352e+15
2.2156969e+15
2.019853e+15
2.0571696e+15
2.1404036e+15
2.2700519e+15
2.0648334e+15
2.1029762e+15
2.1880529e+15
2.320571e+15
2.1065905e+15
2.1455004e+15
2.232288e+15
2.3674707e+15
2.5986493e+15
3.6996956e+15
5.7166051e+15
9.2770224e+15
2.6623417e+15
3.7902143e+15
5.8562077e+15
9.5031538e+15
2.7215428e+15
3.8743592e+15
5.985993e+15
9.7133985e+15
2.7765035e+15
3.9524793e+15
6.1064882e+15
9.9085953e+15
1.5685568e+16
2.7502561e+16
4.891288e+16
8.7903332e+16
1.6067217e+16
2.8170518e+16
5.0098739e+16
9.0030816e+16
1.6422071e+16
2.8791599e+16
5.1201389e+16
9.2009002e+16
1.6751526e+16
2.9368215e+16
5.2225068e+16
9.384545e+16
1.3060429e+17
1.4820926e+17
1.6839936e+17
1.9153356e+17
1.3376133e+17
1.517906e+17
1.7246712e+17
1.9615844e+17
1.3669678e+17
1.5512056e+17
1.7624932e+17
2.0045862e+17
1.3942183e+17
1.5821179e+17
1.7976034e+17
2.0445046e+17
2.266196e+17
2.8088276e+17
3.485238e+17
4.3283686e+17
2.3208912e+17
2.8765778e+17
3.5692519e+17
4.4326429e+17
2.3717459e+17
2.93957e+17
3.6473646e+17
4.5295913e+17
2.4189534e+17
2.9980435e+17
3.7198725e+17
4.6195816e+17
5.2134791e+17
6.0542188e+17
7.0331291e+17
8.1729483e+17
5.3390098e+17
6.1999319e+17
7.2023318e+17
8.3694904e+17
5.4557194e+17
6.3354042e+17
7.3596408e+17
8.5522147e+17
5.5640509e+17
6.4611496e+17
7.505653e+17
8.7218146e+17
9.5236445e+17
1.0551898e+18
1.1315299e+18
1.1871447e+18
9.7525576e+17
1.080545e+18
1.158713e+18
1.2156579e+18
9.9653736e+17
1.1041167e+18
1.1839835e+18
1.242164e+18
1.01629e+18
1.1259944e+18
1.2074372e+18
1.2667635e+18
1.2264079e+18
1.2526249e+18
1.26827e+18
1.2751635e+18
1.2558589e+18
1.2827018e+18
1.2987212e+18
1.3057823e+18
1.2832357e+18
1.3106591e+18
1.3270253e+18
1.3342409e+18
1.3086423e+18
1.3366034e+18
1.3532903e+18
1.3606481e+18
1.2746022e+18
1.2674534e+18
1.2542194e+18
1.2350784e+18
1.3052136e+18
1.2979034e+18
1.2843659e+18
1.2647831e+18
1.3336641e+18
1.3262028e+18
1.3123824e+18
1.2923882e+18
1.3600628e+18
1.3524604e+18
1.3383766e+18
1.3180002e+18
1.2099043e+18
1.1782686e+18
1.1394228e+18
1.0922631e+18
1.2390251e+18
1.2066517e+18
1.166895e+18
1.1186228e+18
1.2660868e+18
1.2330274e+18
1.1924238e+18
1.1431177e+18
1.2911943e+18
1.2574981e+18
1.2161087e+18
1.1658433e+18
1.0352737e+18
9.6644755e+17
8.8317837e+17
7.8211859e+17
1.0602813e+18
9.8981334e+17
9.04548e+17
8.0105579e+17
1.0835196e+18
1.0115258e+18
9.2440556e+17
8.1865312e+17
1.1050795e+18