/*--------------------------------*- C++ -*----------------------------------*\
| =========                 |                                                 |
| \\      /  F ield         | OpenFOAM: The Open Source CFD Toolbox           |
|  \\    /   O peration     | Version:  1.4.1-dev                             |
|   \\  /    A nd           | Web:      http://www.openfoam.org               |
|    \\/     M anipulation  |                                                 |
\*---------------------------------------------------------------------------*/

FoamFile
{
    version 2.0;
    format ascii;

    root "/home/cliffoi/OpenFOAM/cliffoi-1.4.1-dev/run/diffusionFoam";
    case "oecd_simplified_2G";
    instance "0";
    local "";

    class volScalarField;
    object phi2;
}

// * * * * * * * * * * * * * * * * * * * * * * * * * * * * * * * * * * * * * //

dimensions      [0 -2 -1 0 0 0 0];

internalField   nonuniform List<scalar> 
9280
(
1.9649381e+16
1.9651745e+16
1.9656929e+16
1.9664764e+16
5.1621117e+16
5.1627876e+16
5.1642706e+16
5.1665124e+16
8.5658234e+16
8.5671138e+16
8.5699456e+16
8.5742288e+16
1.2299617e+17
1.2301826e+17
1.2306675e+17
1.2314014e+17
1.9687476e+16
1.9742174e+16
1.9816646e+16
1.9905432e+16
5.1730147e+16
5.1887096e+16
5.2101685e+16
5.2359216e+16
8.5866616e+16
8.6167748e+16
8.6582111e+16
8.7084292e+16
1.2335336e+17
1.2387182e+17
1.2459039e+17
1.2547074e+17
2.0004328e+16
2.0104579e+16
2.0193032e+16
2.0257792e+16
5.2648947e+16
5.2947554e+16
5.3218795e+16
5.3430178e+16
8.7657536e+16
8.8262268e+16
8.883321e+16
8.9312655e+16
1.2649146e+17
1.2759438e+17
1.286751e+17
1.2964282e+17
2.0274875e+16
2.027898e+16
2.0280931e+16
2.0280605e+16
5.3500302e+16
5.3520146e+16
5.3534311e+16
5.3542455e+16
8.9508004e+16
8.9569298e+16
8.962112e+16
8.9662849e+16
1.300956e+17
1.3024554e+17
1.3038184e+17
1.3050347e+17
2.0276992e+16
2.0265597e+16
2.0246758e+16
2.0219961e+16
5.3544815e+16
5.3529371e+16
5.3494089e+16
5.3437542e+16
8.9703931e+16
8.9723792e+16
8.9709886e+16
8.9659603e+16
1.3064383e+17
1.3077208e+17
1.3085012e+17
1.3087364e+17
2.0190275e+16
2.0161878e+16
2.0129151e+16
2.0091953e+16
5.3370853e+16
5.3305236e+16
5.3227989e+16
5.3138714e+16
8.9584496e+16
8.9503896e+16
8.9403204e+16
8.9281684e+16
1.3084405e+17
1.3079061e+17
1.3070661e+17
1.3059083e+17
2.0025821e+16
1.9913565e+16
1.977786e+16
1.9617727e+16
5.2977864e+16
5.2698932e+16
5.2356646e+16
5.194826e+16
8.9055395e+16
8.8642944e+16
8.8119883e+16
8.7481097e+16
1.3035556e+17
1.2987472e+17
1.2922308e+17
1.2839204e+17
1.9432373e+16
1.9221201e+16
1.8983822e+16
1.872006e+16
5.147154e+16
5.0924798e+16
5.0306917e+16
4.961737e+16
8.6722398e+16
8.5840592e+16
8.4833529e+16
8.370013e+16
1.2737449e+17
1.2616499e+17
1.2475976e+17
1.2315681e+17
1.8429955e+16
1.8113762e+16
1.777195e+16
1.7405195e+16
4.885623e+16
4.8024168e+16
4.7122446e+16
4.6152904e+16
8.2440413e+16
8.1055485e+16
7.9547536e+16
7.7919804e+16
1.2135592e+17
1.1935865e+17
1.1716836e+17
1.1479008e+17
1.7014372e+16
1.660054e+16
1.6164933e+16
1.5708937e+16
4.5117927e+16
4.4020421e+16
4.286377e+16
4.1651786e+16
7.6176533e+16
7.4322916e+16
7.2365024e+16
7.030972e+16
1.1223051e+17
1.0949792e+17
1.06602e+17
1.0355377e+17
1.5234074e+16
1.4741981e+16
1.4234387e+16
1.371309e+16
4.0388661e+16
3.9078905e+16
3.7727286e+16
3.633876e+16
6.8164563e+16
6.5937702e+16
6.3637761e+16
6.1273712e+16
1.0036543e+17
9.705014e+16
9.3621869e+16
9.0095181e+16
1.3323428e+16
1.3073391e+16
1.2821275e+16
1.2567266e+16
3.5300695e+16
3.4634566e+16
3.3962891e+16
3.3286186e+16
5.9505838e+16
5.8371311e+16
5.7227332e+16
5.6074828e+16
8.7456754e+16
8.5763396e+16
8.4055917e+16
8.2335824e+16
1.2251414e+16
1.187274e+16
1.1491445e+16
1.1108088e+16
3.244476e+16
3.1436086e+16
3.0420584e+16
2.9399792e+16
5.4641901e+16
5.2924511e+16
5.1195998e+16
4.9459129e+16
8.0197474e+16
7.7635428e+16
7.5057933e+16
7.2469451e+16
1.0801478e+16
1.0572153e+16
1.0342548e+16
1.0112769e+16
2.8583557e+16
2.797316e+16
2.7362122e+16
2.6750731e+16
4.8070947e+16
4.7033145e+16
4.5994594e+16
4.4955807e+16
7.0402049e+16
6.8857163e+16
6.7311926e+16
6.5767155e+16
9.7708724e+15
9.3181273e+15
8.8663849e+15
8.4163046e+15
2.5841197e+16
2.4637291e+16
2.34366e+16
2.2240913e+16
4.3411017e+16
4.1367889e+16
3.9331974e+16
3.7306413e+16
6.3471182e+16
6.0438211e+16
5.7419882e+16
5.4421081e+16
7.8856853e+15
7.2786969e+15
6.6783589e+15
6.0856653e+15
2.0831985e+16
1.9221485e+16
1.7629856e+16
1.6059725e+16
3.4921915e+16
3.220009e+16
2.9514043e+16
2.6868168e+16
5.089603e+16
4.6880778e+16
4.2926906e+16
3.9040746e+16
5.5266911e+15
5.0002201e+15
4.4816087e+15
3.9710689e+15
1.4580085e+16
1.3187462e+16
1.1816567e+16
1.0467891e+16
2.4378445e+16
2.2038228e+16
1.9737471e+16
1.7476764e+16
3.539198e+16
3.1969073e+16
2.8610306e+16
2.5316016e+16
3.5073119e+15
3.0876441e+15
2.6738023e+15
2.2657049e+15
9.2435539e+15
8.1361443e+15
7.0445894e+15
5.9686117e+15
1.5426839e+16
1.3574349e+16
1.1749884e+16
9.9527857e+15
2.2333985e+16
1.9642761e+16
1.6995503e+16
1.4390821e+16
1.8898964e+15
1.5446711e+15
1.2034799e+15
8.662063e+14
4.9781102e+15
4.0684454e+15
3.1696e+15
2.281221e+15
8.299522e+15
6.7819086e+15
5.2829425e+15
3.8018939e+15
1.1996923e+16
9.8010087e+15
7.6333669e+15
5.4926401e+15
6.3302476e+14
5.0022453e+14
3.6800875e+14
2.3636919e+14
1.6670961e+15
1.3173512e+15
9.6915353e+14
6.2247831e+14
2.7783012e+15
2.1953959e+15
1.6150973e+15
1.037355e+15
4.0136383e+15
3.1714657e+15
2.3331222e+15
1.4985157e+15
1.6479607e+17
1.6483196e+17
1.6491077e+17
1.6503012e+17
2.1209839e+17
2.1215457e+17
2.1227799e+17
2.1246502e+17
2.6574754e+17
2.6583263e+17
2.660196e+17
2.6630311e+17
3.2628871e+17
3.2641334e+17
3.2668731e+17
3.2710297e+17
1.6537718e+17
1.6622445e+17
1.674072e+17
1.6887166e+17
2.1300936e+17
2.1434339e+17
2.1621849e+17
2.1856354e+17
2.6712894e+17
2.6916044e+17
2.7203489e+17
2.7566391e+17
3.2831477e+17
3.3130664e+17
3.3556728e+17
3.4099538e+17
1.7059498e+17
1.7249805e+17
1.7442274e+17
1.762335e+17
2.213608e+17
2.2450958e+17
2.277788e+17
2.3097252e+17
2.8004742e+17
2.8506692e+17
2.9039571e+17
2.9575822e+17
3.4762999e+17
3.553472e+17
3.6370146e+17
3.7231632e+17
1.7715964e+17
1.7747554e+17
1.7777323e+17
1.7805113e+17
2.3270602e+17
2.3330789e+17
2.3388677e+17
2.3444025e+17
2.9879415e+17
2.998605e+17
3.0089945e+17
3.0190729e+17
3.7735003e+17
3.7913244e+17
3.8088428e+17
3.8259993e+17
1.7839089e+17
1.7874904e+17
1.7903701e+17
1.7924801e+17
2.3513645e+17
2.3591617e+17
2.3660133e+17
2.3718127e+17
3.0319601e+17
3.0468705e+17
3.0605397e+17
3.0728013e+17
3.8481674e+17
3.8743254e+17
3.8988859e+17
3.9215889e+17
1.7935528e+17
1.7940078e+17
1.7940223e+17
1.7935767e+17
2.3757225e+17
2.3783259e+17
2.3803109e+17
2.3816466e+17
3.0818034e+17
3.0883419e+17
3.0940244e+17
3.098802e+17
3.9389265e+17
3.9519724e+17
3.9638411e+17
3.9744557e+17
1.7921143e+17
1.7877753e+17
1.780925e+17
1.7714239e+17
2.3826847e+17
2.3807409e+17
2.3751844e+17
2.3657927e+17
3.1048529e+17
3.1083424e+17
3.1066873e+17
3.0995395e+17
3.989146e+17
4.0024645e+17
4.0085e+17
4.0067281e+17
1.7591562e+17
1.744032e+17
1.7259884e+17
1.70499e+17
2.3523813e+17
2.3348063e+17
2.3129657e+17
2.2868002e+17
3.0866129e+17
3.0676851e+17
3.0425992e+17
3.0112631e+17
3.9967255e+17
3.9781719e+17
3.9508474e+17
3.914627e+17
1.6810293e+17
1.6541269e+17
1.6243306e+17
1.5917152e+17
2.2562931e+17
2.2214698e+17
2.1823971e+17
2.139182e+17
2.9736478e+17
2.9297853e+17
2.879767e+17
2.8237412e+17
3.8694746e+17
3.8154367e+17
3.7526371e+17
3.6812733e+17
1.5563811e+17
1.5184532e+17
1.4780793e+17
1.4354285e+17
2.09197e+17
2.0409441e+17
1.9863228e+17
1.9283573e+17
2.7619118e+17
2.6945367e+17
2.6219265e+17
2.5444432e+17
3.6016148e+17
3.5140031e+17
3.4188528e+17
3.3166539e+17
1.3906883e+17
1.3440628e+17
1.2957693e+17
1.246035e+17
1.8673296e+17
1.8035482e+17
1.7373446e+17
1.6690675e+17
2.4624972e+17
2.3765444e+17
2.2870809e+17
2.1946358e+17
3.207973e+17
3.0934541e+17
2.9738149e+17
2.8498397e+17
1.2088057e+17
1.184909e+17
1.1608127e+17
1.1365405e+17
1.6179179e+17
1.5850802e+17
1.5519675e+17
1.5186163e+17
2.1253017e+17
2.0807772e+17
2.0358751e+17
1.9906521e+17
2.7566833e+17
2.6968272e+17
2.6364428e+17
2.5756189e+17
1.1063716e+17
1.0702406e+17
1.0339137e+17
9.9746053e+16
1.4771716e+17
1.4275631e+17
1.3777245e+17
1.3277627e+17
1.9344663e+17
1.8672534e+17
1.7997905e+17
1.7322428e+17
2.5000555e+17
2.409706e+17
2.3191026e+17
2.2285048e+17
9.6837318e+16
9.4665093e+16
9.249385e+16
9.0324841e+16
1.2879452e+17
1.2582338e+17
1.228562e+17
1.1989487e+17
1.6784909e+17
1.638422e+17
1.5984506e+17
1.558605e+17
2.1565333e+17
2.1029453e+17
2.0495565e+17
1.9964102e+17
8.7103528e+16
8.2855214e+16
7.8634952e+16
7.4449977e+16
1.1550121e+17
1.0971925e+17
1.0398879e+17
9.8320306e+16
1.4995606e+17
1.4220685e+17
1.3454904e+17
1.2699756e+17
1.9177735e+17
1.8149017e+17
1.7136013e+17
1.6140825e+17
6.9540411e+16
6.3964157e+16
5.8489357e+16
5.312439e+16
9.1687593e+16
8.4182152e+16
7.684129e+16
6.9675284e+16
1.1819018e+17
1.0827005e+17
9.8613256e+16
8.9231123e+16
1.4984678e+17
1.3689721e+17
1.2436277e+17
1.1225353e+17
4.8102135e+16
4.3403283e+16
3.8804332e+16
3.4304701e+16
6.2992542e+16
5.6761301e+16
5.0682443e+16
4.4753283e+16
8.0522559e+16
7.2435976e+16
6.4578469e+16
5.6943214e+16
1.0107575e+17
9.0746832e+16
8.0757107e+16
7.1092302e+16
3.024092e+16
2.6580004e+16
2.2984805e+16
1.9452634e+16
3.9413938e+16
3.4614762e+16
2.9911462e+16
2.5299158e+16
5.0091502e+16
4.3949689e+16
3.794549e+16
3.2070498e+16
6.2454376e+16
5.4735675e+16
4.7211422e+16
3.9867788e+16
1.6210488e+16
1.3239314e+16
1.0308729e+16
7.4163511e+15
2.1072411e+16
1.7203559e+16
1.3391367e+16
9.6318453e+15
2.6697025e+16
2.1785575e+16
1.6951825e+16
1.2189352e+16
3.3165908e+16
2.7050277e+16
2.103959e+16
1.5123901e+16
5.418969e+15
4.2817601e+15
3.1498376e+15
2.0230427e+15
7.0371489e+15
5.5600911e+15
4.0900898e+15
2.6268835e+15
8.9047281e+15
7.0352761e+15
5.1750448e+15
3.3236194e+15
1.1047138e+16
8.7273418e+15
6.4193985e+15
4.1226749e+15
3.9384909e+17
3.9402532e+17
3.9441282e+17
3.9500104e+17
4.6803268e+17
4.6827246e+17
4.6879986e+17
4.6960088e+17
5.4787563e+17
5.4818856e+17
5.4887699e+17
5.4992306e+17
6.3191476e+17
6.3230554e+17
6.3316541e+17
6.3447234e+17
3.9671737e+17
4.0096983e+17
4.0706316e+17
4.1489354e+17
4.7193982e+17
4.7775374e+17
4.8613168e+17
4.9698277e+17
5.5297941e+17
5.6059685e+17
5.716244e+17
5.8599725e+17
6.3829242e+17
6.4783006e+17
6.6167805e+17
6.7979488e+17
4.2457145e+17
4.3599198e+17
4.4857067e+17
4.6180751e+17
5.1052822e+17
5.2671437e+17
5.447978e+17
5.6411713e+17
6.0407751e+17
6.2587857e+17
6.5044775e+17
6.7684212e+17
7.0267644e+17
7.303559e+17
7.6152254e+17
7.9459205e+17
4.6972819e+17
4.7254861e+17
4.7533701e+17
4.7808477e+17
5.7584679e+17
5.8003476e+17
5.8418584e+17
5.8828643e+17
6.9281165e+17
6.984939e+17
7.0410064e+17
7.0960712e+17
8.137455e+17
8.2042575e+17
8.2685294e+17
8.3296557e+17
4.8165862e+17
4.8592603e+17
4.8998772e+17
4.9380318e+17
5.9363219e+17
6.0003809e+17
6.0615566e+17
6.1192214e+17
7.1673351e+17
7.2513967e+17
7.329976e+17
7.4020016e+17
8.4055659e+17
8.486897e+17
8.5520085e+17
8.5975353e+17
4.9677525e+17
4.9904944e+17
5.011611e+17
5.0309863e+17
6.1643218e+17
6.1989576e+17
6.2312729e+17
6.2611191e+17
7.4563899e+17
7.4970165e+17
7.533798e+17
7.566728e+17
8.6170133e+17
8.6218071e+17
8.6157156e+17
8.599949e+17
5.0587064e+17
5.0870781e+17
5.1052292e+17
5.1124341e+17
6.3042145e+17
6.3499034e+17
6.3816848e+17
6.3987896e+17
7.6128574e+17
7.6591405e+17
7.6892762e+17
7.7031107e+17
8.5640171e+17
8.5144146e+17
8.4656597e+17
8.4163243e+17
5.1081331e+17
5.0919253e+17
5.0635555e+17
5.0228979e+17
6.400657e+17
6.3869224e+17
6.3573926e+17
6.3120174e+17
7.7003511e+17
7.6807319e+17
7.6440837e+17
7.5903505e+17
8.3640412e+17
8.3064362e+17
8.2415037e+17
8.1677196e+17
4.9699383e+17
4.9047596e+17
4.8275295e+17
4.7384942e+17
6.2508591e+17
6.1740677e+17
6.081861e+17
5.9745125e+17
7.5195808e+17
7.4319083e+17
7.3275311e+17
7.2066929e+17
8.0840384e+17
7.9898481e+17
7.8849155e+17
7.7693373e+17
4.6379761e+17
4.5263767e+17
4.4041839e+17
4.2719836e+17
5.8523469e+17
5.7157441e+17
5.5651502e+17
5.4010978e+17
7.0696674e+17
6.9167458e+17
6.7482251e+17
6.5643956e+17
7.6434968e+17
7.5080229e+17
7.3637342e+17
7.2115428e+17
4.1304726e+17
3.9804717e+17
3.8229356e+17
3.6589552e+17
5.2242335e+17
5.0353532e+17
4.8354425e+17
4.6257211e+17
6.3655268e+17
6.1518502e+17
5.9235492e+17
5.6807778e+17
7.0522648e+17
6.8862464e+17
6.7126377e+17
6.5280088e+17
3.5353031e+17
3.4557512e+17
3.3754168e+17
3.2944382e+17
4.4663866e+17
4.3635488e+17
4.2593938e+17
4.1541281e+17
5.4929711e+17
5.3705652e+17
5.245335e+17
5.1175134e+17
6.378754e+17
6.2754439e+17
6.1626108e+17
6.0402382e+17
3.1937892e+17
3.0734261e+17
2.952778e+17
2.8322609e+17
4.0229968e+17
3.865782e+17
3.7079471e+17
3.5501915e+17
4.956806e+17
4.7618326e+17
4.5642433e+17
4.3653911e+17
5.8781099e+17
5.669014e+17
5.4474989e+17
5.2174713e+17
2.7366728e+17
2.6655836e+17
2.5948535e+17
2.52455e+17
3.425113e+17
3.3321475e+17
3.2397339e+17
3.1479827e+17
4.2070107e+17
4.0890854e+17
3.9717299e+17
3.8551524e+17
5.0302601e+17
4.8895445e+17
4.7484747e+17
4.6075476e+17
2.4206955e+17
2.285325e+17
2.1525556e+17
2.0226826e+17
3.0126301e+17
2.8367926e+17
2.6650159e+17
2.4977289e+17
3.6831665e+17
3.4600151e+17
3.2425602e+17
3.0315076e+17
4.3987554e+17
4.1265204e+17
3.8607514e+17
3.602874e+17
1.8724851e+17
1.7053333e+17
1.5445894e+17
1.3902959e+17
2.3051765e+17
2.0923463e+17
1.8890884e+17
1.6953189e+17
2.7895515e+17
2.5237551e+17
2.2715458e+17
2.0326622e+17
3.3077171e+17
2.9846803e+17
2.6795545e+17
2.391975e+17
1.2487605e+17
1.1186887e+17
9.9354003e+16
8.730479e+16
1.5187465e+17
1.3574091e+17
1.20302e+17
1.0551245e+17
1.8163485e+17
1.6197824e+17
1.4326531e+17
1.2542536e+17
2.1328675e+17
1.8984624e+17
1.6762595e+17
1.4652663e+17
7.6583827e+16
6.7036737e+16
5.7759195e+16
4.8729472e+16
9.2414053e+16
8.079129e+16
6.9532943e+16
5.8606513e+16
1.0969467e+17
9.5783184e+16
8.2348829e+16
6.9345631e+16
1.2799025e+17
1.1164395e+17
9.5898769e+16
8.069362e+16
4.0508706e+16
3.3020381e+16
2.5671432e+16
1.8447067e+16
4.8683511e+16
3.9661027e+16
3.0819835e+16
2.2138864e+16
5.756411e+16
4.6870131e+16
3.6405947e+16
2.6142916e+16
6.6944276e+16
5.4482292e+16
4.2302859e+16
3.0368944e+16
1.3472697e+16
1.0642804e+16
7.8279133e+15
5.027097e+15
1.616675e+16
1.2770062e+16
9.3920457e+15
6.0313947e+15
1.9088218e+16
1.5076703e+16
1.1087976e+16
7.1202795e+15
2.2171442e+16
1.7510974e+16
1.2877701e+16
8.2693709e+15
7.1839284e+17
7.188599e+17
7.1988767e+17
7.2144997e+17
8.0555436e+17
8.0609055e+17
8.0727042e+17
8.0906385e+17
8.9191571e+17
8.9251089e+17
8.9382045e+17
8.9581076e+17
9.7640445e+17
9.7704815e+17
9.7846437e+17
9.8061644e+17
7.2601721e+17
7.3742767e+17
7.5401e+17
7.7571942e+17
8.1430644e+17
8.2740013e+17
8.4641359e+17
8.7126306e+17
9.0162775e+17
9.161437e+17
9.3718687e+17
9.6461087e+17
9.8690475e+17
1.0025813e+18
1.0252642e+18
1.0547387e+18
8.0312741e+17
8.3616092e+17
8.7290026e+17
9.1051052e+17
9.0252419e+17
9.3991586e+17
9.808316e+17
1.0211731e+18
9.9894999e+17
1.0396865e+18
1.083605e+18
1.1256103e+18
1.0914825e+18
1.1347628e+18
1.1808784e+18
1.2239963e+18
9.2996902e+17
9.3636557e+17
9.4202674e+17
9.4678007e+17
1.0398681e+18
1.0456635e+18
1.0503404e+18
1.0536624e+18
1.1434387e+18
1.1486937e+18
1.1525682e+18
1.1547895e+18
1.2411016e+18
1.2459319e+18
1.2491944e+18
1.2505915e+18
9.5160269e+17
9.5372348e+17
9.5056979e+17
9.4026893e+17
1.055901e+18
1.0531256e+18
1.04296e+18
1.023053e+18
1.1551223e+18
1.1489147e+18
1.1340255e+18
1.1078502e+18
1.249515e+18
1.2408022e+18
1.2224876e+18
1.1917716e+18
9.2347208e+17
9.0387674e+17
8.7704247e+17
8.412977e+17
9.9556022e+17
9.6559869e+17
9.2664885e+17
8.7700218e+17
1.0735381e+18
1.0370229e+18
9.9041573e+17
9.3188269e+17
1.1524987e+18
1.1111859e+18
1.0589242e+18
9.9375719e+17
7.9235502e+17
7.5453046e+17
7.2595306e+17
7.0390642e+17
8.1164909e+17
7.5997639e+17
7.2047472e+17
6.8997776e+17
8.5569297e+17
7.9470926e+17
7.4767175e+17
7.1116174e+17
9.0934066e+17
8.4133087e+17
7.8861371e+17
7.4754323e+17
6.8645963e+17
6.7223341e+17
6.6024524e+17
6.4980507e+17
6.6613365e+17
6.4720678e+17
6.3192968e+17
6.1939416e+17
6.826047e+17
6.600743e+17
6.4214517e+17
6.2778304e+17
7.1536423e+17
6.9000632e+17
6.6992985e+17
6.5401132e+17
6.4044443e+17
6.3186869e+17
6.2392608e+17
6.165897e+17
6.0897243e+17
6.0026167e+17
5.9304682e+17
5.8727833e+17
6.1626394e+17
6.0711643e+17
6.0008205e+17
5.9509099e+17
6.4145911e+17
6.31753e+17
6.2460259e+17
6.1992146e+17
6.0995038e+17
6.0421946e+17
5.9974216e+17
5.9702317e+17
5.8306257e+17
5.8066387e+17
5.8051794e+17
5.832573e+17
5.922508e+17
5.9184686e+17
5.9435419e+17
6.0046099e+17
6.1781468e+17
6.1857866e+17
6.2271262e+17
6.3094212e+17
5.9676841e+17
5.9994983e+17
6.0790521e+17
6.2249422e+17
5.897501e+17
6.0115402e+17
6.1898757e+17
6.4521954e+17
6.1110445e+17
6.2752069e+17
6.5131069e+17
6.8452499e+17
6.4425574e+17
6.6395657e+17
6.9173132e+17
7.2974094e+17
6.4541659e+17
6.5822142e+17
6.6371985e+17
6.6344238e+17
6.8090025e+17
7.0388801e+17
7.1761408e+17
7.2378273e+17
7.2794767e+17
7.5692308e+17
7.7539053e+17
7.8520993e+17
7.7865234e+17
8.1173624e+17
8.3334528e+17
8.454791e+17
6.5747048e+17
6.4313561e+17
6.2380676e+17
6.0112306e+17
7.2382488e+17
7.1379689e+17
6.9654996e+17
6.7425388e+17
7.8858707e+17
7.8080741e+17
7.6443552e+17
7.4193287e+17
8.5084181e+17
8.4417267e+17
8.2792693e+17
8.0478157e+17
5.8133974e+17
5.6605499e+17
5.5041316e+17
5.3454241e+17
6.5377774e+17
6.3762895e+17
6.2084017e+17
6.0359421e+17
7.2062634e+17
7.0361892e+17
6.8577126e+17
6.6729993e+17
7.8249073e+17
7.6457847e+17
7.4568297e+17
7.2604423e+17
5.1074912e+17
4.792524e+17
4.4823661e+17
4.1800213e+17
5.7748446e+17
5.4244267e+17
5.0762303e+17
4.73479e+17
6.3916322e+17
6.0105542e+17
5.6294059e+17
5.2538602e+17
6.9602306e+17
6.5513956e+17
6.1407659e+17
5.7348326e+17
3.83324e+17
3.4536295e+17
3.0955961e+17
2.7589573e+17
4.3416685e+17
3.9101235e+17
3.5026636e+17
3.1195528e+17
4.8199385e+17
4.342035e+17
3.8898592e+17
3.4641798e+17
5.2645509e+17
4.7451546e+17
4.2526886e+17
3.7883591e+17
2.4565121e+17
2.1836558e+17
1.9257217e+17
1.6814608e+17
2.7755951e+17
2.4655969e+17
2.1729065e+17
1.8960963e+17
3.0817683e+17
2.7370482e+17
2.4116007e+17
2.1038924e+17
3.3707567e+17
2.9940349e+17
2.6381924e+17
2.3016335e+17
1.4674191e+17
1.2790451e+17
1.0979333e+17
9.2332307e+16
1.6538587e+17
1.4409062e+17
1.2363799e+17
1.0393884e+17
1.8347214e+17
1.5981808e+17
1.3710916e+17
1.1524564e+17
2.0071691e+17
1.7483788e+17
1.4999223e+17
1.2607184e+17
7.6566025e+16
6.2291315e+16
4.8352794e+16
3.4704941e+16
8.6167251e+16
7.0087502e+16
5.4395164e+16
3.9036828e+16
9.552901e+16
7.7694627e+16
6.0294366e+16
4.326793e+16
1.0450121e+17
8.4990549e+16
6.5955597e+16
4.7330213e+16
2.5335027e+16
2.000874e+16
1.4714141e+16
9.4484701e+15
2.8496046e+16
2.2504656e+16
1.654932e+16
1.06268e+16
3.1584118e+16
2.4943213e+16
1.834246e+16
1.1778195e+16
3.4549577e+16
2.7285189e+16
2.0064719e+16
1.2884131e+16
1.0583562e+18
1.0590394e+18
1.0605422e+18
1.0628257e+18
1.1374265e+18
1.138142e+18
1.1397159e+18
1.1421068e+18
1.2134814e+18
1.2142238e+18
1.2158567e+18
1.2183373e+18
1.2865044e+18
1.2872696e+18
1.2889528e+18
1.2915093e+18
1.0694965e+18
1.0861115e+18
1.1101122e+18
1.1412206e+18
1.1490905e+18
1.166472e+18
1.1915463e+18
1.2239817e+18
1.2255816e+18
1.2436013e+18
1.2695694e+18
1.3031099e+18
1.2989749e+18
1.3175368e+18
1.3442646e+18
1.3787452e+18
1.179861e+18
1.2251224e+18
1.2729237e+18
1.316871e+18
1.2641577e+18
1.3110189e+18
1.3601793e+18
1.4047911e+18
1.3445654e+18
1.3927611e+18
1.4430554e+18
1.4882109e+18
1.4212903e+18
1.4706224e+18
1.5218766e+18
1.5674676e+18
1.3333979e+18
1.3378924e+18
1.3406733e+18
1.3414228e+18
1.4208337e+18
1.4250474e+18
1.4274252e+18
1.4276319e+18
1.5038156e+18
1.507778e+18
1.5097965e+18
1.50952e+18
1.5826455e+18
1.5863693e+18
1.5880509e+18
1.5873242e+18
1.3392392e+18
1.3285537e+18
1.3075279e+18
1.2731917e+18
1.4245175e+18
1.4121652e+18
1.3888346e+18
1.3513998e+18
1.5055773e+18
1.491739e+18
1.466348e+18
1.4261338e+18
1.582613e+18
1.567401e+18
1.5401079e+18
1.4973281e+18
1.2299272e+18
1.1847259e+18
1.1278453e+18
1.0572148e+18
1.304694e+18
1.2561229e+18
1.1952189e+18
1.1198049e+18
1.3763299e+18
1.324717e+18
1.2601716e+18
1.1804175e+18
1.4446631e+18
1.3902397e+18
1.3223276e+18
1.2385579e+18
9.6594074e+17
8.9211884e+17
8.3473606e+17
7.899278e+17
1.0224773e+18
9.4354759e+17
8.8208751e+17
8.3402283e+17
1.0775686e+18
9.9398655e+17
9.2882422e+17
8.7780781e+17
1.1305843e+18
1.0426814e+18
9.7408434e+17
9.2033052e+17
7.5477061e+17
7.2706448e+17
7.051702e+17
6.8788859e+17
7.9626992e+17
7.6650651e+17
7.430006e+17
7.2448341e+17
8.3770126e+17
8.0606617e+17
7.8108267e+17
7.6141635e+17
8.780394e+17
8.4466248e+17
8.1829657e+17
7.9754511e+17
6.7437181e+17
6.6405962e+17
6.5663571e+17
6.5200026e+17
7.1005606e+17
6.9912261e+17
6.9134405e+17
6.8660955e+17
7.4612056e+17
7.3456622e+17
7.2639369e+17
7.2148261e+17
7.8141631e+17
7.6924997e+17
7.6066725e+17
7.5553923e+17
6.5025679e+17
6.5171167e+17
6.5688613e+17
6.6654087e+17
6.8502253e+17
6.8690023e+17
6.9278626e+17
7.0347667e+17
7.1993736e+17
7.2208661e+17
7.2849656e+17
7.399983e+17
7.5397177e+17
7.5630504e+17
7.6312737e+17
7.7530379e+17
6.8171466e+17
7.0377894e+17
7.3451126e+17
7.7619216e+17
7.2006065e+17
7.4397824e+17
7.7709803e+17
8.2181967e+17
7.5773055e+17
7.8320031e+17
8.1836451e+17
8.6573761e+17
7.9402076e+17
8.2084944e+17
8.5783101e+17
9.0758898e+17
8.2942811e+17
8.6565958e+17
8.8959593e+17
9.0336339e+17
8.7871249e+17
9.1754979e+17
9.4336208e+17
9.5839196e+17
9.2586143e+17
9.6696751e+17
9.9438252e+17
1.010457e+18
9.7064121e+17
1.0137836e+18
1.0426194e+18
1.0595998e+18
9.100203e+17
9.038696e+17
8.8735243e+17
8.6332839e+17
9.659724e+17
9.6003165e+17
9.4304488e+17
9.1803537e+17
1.0187515e+18
1.012859e+18
9.9531205e+17
9.6928427e+17
1.0684826e+18
1.062554e+18
1.0444142e+18
1.0173765e+18
8.3996995e+17
8.211295e+17
8.0119636e+17
7.804291e+17
8.9358396e+17
8.7381879e+17
8.5287111e+17
8.3101549e+17
9.4375093e+17
9.2308319e+17
9.0115523e+17
8.7825607e+17
9.9079356e+17
9.6925681e+17
9.4639029e+17
9.2249626e+17
7.4861738e+17
7.0515372e+17
6.6138442e+17
6.1802118e+17
7.9749482e+17
7.5160393e+17
7.0531244e+17
6.5938354e+17
8.4310666e+17
7.9492272e+17
7.4626299e+17
6.9793559e+17
8.8579939e+17
8.3544802e+17
7.8455814e+17
7.3397843e+17
5.6769018e+17
5.1198526e+17
4.5907623e+17
4.0911819e+17
6.060052e+17
5.4683598e+17
4.9055972e+17
4.3735843e+17
6.417173e+17
5.7932851e+17
5.1992744e+17
4.6371782e+17
6.7509894e+17
6.0969966e+17
5.473807e+17
4.8836415e+17
3.6413462e+17
3.2351851e+17
2.8512559e+17
2.487919e+17
3.8940426e+17
3.4606928e+17
3.0507609e+17
2.6625678e+17
4.1300749e+17
3.6714807e+17
3.2373797e+17
2.8260534e+17
4.3508297e+17
3.8686872e+17
3.4120341e+17
2.9791118e+17
2.1698787e+17
1.8902788e+17
1.6217755e+17
1.3632196e+17
2.3225854e+17
2.023575e+17
1.7363333e+17
1.4596529e+17
2.4656209e+17
2.1484972e+17
1.8437481e+17
1.550114e+17
2.5995765e+17
2.265523e+17
1.9444001e+17
1.6349008e+17
1.1300263e+17
9.1907956e+16
7.1325851e+16
5.1185224e+16
1.2100534e+17
9.8422542e+16
7.6385283e+16
5.4818188e+16
1.2851516e+17
1.045377e+17
8.1135677e+16
5.8229919e+16
1.3555536e+17
1.1027141e+17
8.5590402e+16
6.1429682e+16
3.7364226e+16
2.9508264e+16
2.1699654e+16
1.393404e+16
4.0017116e+16
3.1603724e+16
2.3240819e+16
1.4923768e+16
4.2508695e+16
3.3571864e+16
2.4688399e+16
1.585342e+16
4.4845623e+16
3.5417901e+16
2.6046207e+16
1.6725435e+16
1.356533e+18
1.3573179e+18
1.3590443e+18
1.3616663e+18
1.4236217e+18
1.4244237e+18
1.4261876e+18
1.4288665e+18
1.4878239e+18
1.4886407e+18
1.4904373e+18
1.4931658e+18
1.5491855e+18
1.5500153e+18
1.5518402e+18
1.5546117e+18
1.3693226e+18
1.3883517e+18
1.4157347e+18
1.4510259e+18
1.4366885e+18
1.4561234e+18
1.484075e+18
1.5200691e+18
1.5011319e+18
1.5209198e+18
1.5493651e+18
1.5859673e+18
1.5627029e+18
1.5827965e+18
1.6116683e+18
1.6487934e+18
1.49451e+18
1.5448175e+18
1.596883e+18
1.6428022e+18
1.5643643e+18
1.6155071e+18
1.6682482e+18
1.714388e+18
1.6309602e+18
1.6828111e+18
1.7361012e+18
1.7823553e+18
1.6943805e+18
1.7468221e+18
1.8005425e+18
1.8468092e+18
1.6575421e+18
1.6610295e+18
1.6623837e+18
1.6612248e+18
1.728666e+18
1.7319136e+18
1.7329429e+18
1.7313611e+18
1.7961417e+18
1.7991435e+18
1.799847e+18
1.7978477e+18
1.8600733e+18
1.8628224e+18
1.8631983e+18
1.860785e+18
1.6557811e+18
1.6392701e+18
1.6101867e+18
1.5649994e+18
1.725208e+18
1.7074524e+18
1.6766657e+18
1.629199e+18
1.7910016e+18
1.7720453e+18
1.7396292e+18
1.6899949e+18
1.8532598e+18
1.8331419e+18
1.7991634e+18
1.7474644e+18
1.5096547e+18
1.4526014e+18
1.3815412e+18
1.2940186e+18
1.5713261e+18
1.5117961e+18
1.4377759e+18
1.3467291e+18
1.6297285e+18
1.5678596e+18
1.4910497e+18
1.3966873e+18
1.6849295e+18
1.62085e+18
1.5414094e+18
1.4439269e+18
1.1812468e+18
1.0892908e+18
1.0174714e+18
9.6114813e+17
1.2294471e+18
1.1336719e+18
1.0588138e+18
1.0000648e+18
1.2751602e+18
1.1757803e+18
1.0980509e+18
1.0370068e+18
1.3184044e+18
1.2156223e+18
1.1351792e+18
1.071963e+18
9.1680393e+17
8.8178624e+17
8.5411306e+17
8.3232903e+17
9.5377952e+17
9.1720737e+17
8.8829196e+17
8.655224e+17
9.8888225e+17
9.5083429e+17
9.2073661e+17
8.9702602e+17
1.022095e+18
9.8264569e+17
9.5142306e+17
9.2681475e+17
8.1539966e+17
8.0263538e+17
7.9363931e+17
7.8827464e+17
8.4782389e+17
8.344791e+17
8.2507414e+17
8.1946476e+17
8.7858969e+17
8.646841e+17
8.5487926e+17
8.490239e+17
9.0767215e+17
8.9322701e+17
8.8303417e+17
8.7693564e+17
7.8664885e+17
7.8911329e+17
7.9627748e+17
8.0903888e+17
8.1776006e+17
8.2032195e+17
8.2778005e+17
8.4106241e+17
8.4722856e+17
8.4986507e+17
8.5758188e+17
8.7133573e+17
8.750432e+17
8.7773792e+17
8.8568578e+17
8.998703e+17
8.2862931e+17
8.5668071e+17
8.9531382e+17
9.4725495e+17
8.6144358e+17
8.9061271e+17
9.3076527e+17
9.8472398e+17
8.9244122e+17
9.2264104e+17
9.6420064e+17
1.0200328e+18
9.216435e+17
9.5279805e+17
9.9566466e+17
1.0532402e+18
1.0129989e+18
1.058001e+18
1.0881245e+18
1.1059142e+18
1.0529602e+18
1.099677e+18
1.1309822e+18
1.1495083e+18
1.0905849e+18
1.1388904e+18
1.1712877e+18
1.1904906e+18
1.1259473e+18
1.175728e+18
1.209138e+18
1.2289668e+18
1.1153041e+18
1.1092967e+18
1.090563e+18
1.0625464e+18
1.1593489e+18
1.1532428e+18
1.1339312e+18
1.1049788e+18
1.2007397e+18
1.1945276e+18
1.1746632e+18
1.1448244e+18
1.2395905e+18
1.233272e+18
1.2128846e+18
1.1822114e+18
1.0349582e+18
1.0125925e+18
9.8883352e+17
9.6399572e+17
1.0764359e+18
1.0532849e+18
1.0286817e+18
1.0029523e+18
1.1153805e+18
1.0914891e+18
1.0660906e+18
1.0395219e+18
1.1519208e+18
1.1273341e+18
1.1011891e+18
1.0738326e+18
9.2583363e+17
8.7343601e+17
8.2044516e+17
7.6774712e+17
9.6340743e+17
9.0908163e+17
8.5411326e+17
7.9942309e+17
9.9867584e+17
9.4253701e+17
8.8571012e+17
8.2914837e+17
1.0317655e+18
9.7392564e+17
9.1535515e+17
8.570376e+17
7.0636798e+17
6.381449e+17
5.7309172e+17
5.114467e+17
7.3569483e+17
6.6482008e+17
5.9720084e+17
5.3309011e+17
7.6321371e+17
6.8984917e+17
6.198211e+17
5.5339617e+17
7.8903296e+17
7.1333257e+17
6.4104452e+17
5.7244833e+17
4.5575917e+17
4.0534116e+17
3.575654e+17
3.1225199e+17
4.7514595e+17
4.2266168e+17
3.729074e+17
3.2569927e+17
4.9333436e+17
4.389113e+17
3.873007e+17
3.3831498e+17
5.1039966e+17
4.5415751e+17
4.0080519e+17
3.5015164e+17
2.7251033e+17
2.3751989e+17
2.0387423e+17
1.7143815e+17
2.8428136e+17
2.4780496e+17
2.1272173e+17
1.7889226e+17
2.9532453e+17
2.574541e+17
2.2102226e+17
1.8588563e+17
3.0568575e+17
2.6650738e+17
2.2881024e+17
1.9244719e+17
1.4215563e+17
1.156473e+17
8.9767443e+16
6.4430187e+16
1.4834597e+17
1.2068949e+17
9.3685341e+16
6.7244641e+16
1.5415377e+17
1.2542016e+17
9.7361252e+16
6.9885315e+16
1.59603e+17
1.2985881e+17
1.0081029e+17
7.2363047e+16
4.7037115e+16
3.7149086e+16
2.7319561e+16
1.7543222e+16
4.9092776e+16
3.8772992e+16
2.8514021e+16
1.8310348e+16
5.1021549e+16
4.0296676e+16
2.9634774e+16
1.9030142e+16
5.283134e+16
4.1726378e+16
3.0686406e+16
1.9705547e+16
1.6077447e+18
1.6085856e+18
1.610435e+18
1.6132436e+18
1.6635337e+18
1.6643841e+18
1.6662544e+18
1.6690946e+18
1.7165816e+18
1.7174401e+18
1.719328e+18
1.7221948e+18
1.7669169e+18
1.767782e+18
1.7696846e+18
1.7725736e+18
1.6214424e+18
1.641799e+18
1.6710361e+18
1.7086059e+18
1.6773853e+18
1.6979656e+18
1.7275119e+18
1.765455e+18
1.730563e+18
1.7513312e+18
1.7811357e+18
1.8193867e+18
1.7810062e+18
1.8019298e+18
1.8319461e+18
1.870446e+18
1.7546921e+18
1.8076162e+18
1.8616566e+18
1.9078409e+18
1.8119531e+18
1.8652602e+18
1.9195199e+18
1.9655359e+18
1.8662174e+18
1.9198172e+18
1.9742054e+18
2.0199773e+18
1.9175377e+18
1.9713495e+18
2.0257857e+18
2.0712486e+18
1.9205545e+18
1.9230446e+18
1.9230911e+18
1.9202678e+18
1.9776748e+18
1.9799009e+18
1.9796175e+18
1.9763887e+18
2.0315225e+18
2.0334815e+18
2.0328692e+18
2.0292409e+18
2.082187e+18
2.0838776e+18
2.0829392e+18
2.0789188e+18
1.9120768e+18
1.8908344e+18
1.8553574e+18
1.8016917e+18
1.9675458e+18
1.9452163e+18
1.9083035e+18
1.8527659e+18
2.0197618e+18
1.9963832e+18
1.9580968e+18
1.9007803e+18
2.0688207e+18
2.0444325e+18
2.0048348e+18
1.945831e+18
1.7370071e+18
1.6708387e+18
1.5889187e+18
1.4885017e+18
1.7860459e+18
1.7179059e+18
1.6336515e+18
1.5304776e+18
1.8321362e+18
1.7621376e+18
1.6756884e+18
1.5699281e+18
1.8753711e+18
1.8036236e+18
1.7151142e+18
1.6069313e+18
1.3592219e+18
1.2532313e+18
1.1702255e+18
1.1049551e+18
1.3976688e+18
1.2886562e+18
1.2032333e+18
1.1360228e+18
1.4338095e+18
1.3219551e+18
1.2342562e+18
1.1652162e+18
1.4677136e+18
1.3531916e+18
1.2633533e+18
1.1925916e+18
1.0534357e+18
1.012657e+18
9.8036523e+17
9.5490192e+17
1.0829415e+18
1.0409035e+18
1.0075973e+18
9.813213e+17
1.1106602e+18
1.0674314e+18
1.0331647e+18
1.0061178e+18
1.1366457e+18
1.0922932e+18
1.0571188e+18
1.0293426e+18
9.3508483e+17
9.2012245e+17
9.0955528e+17
9.0321889e+17
9.6086165e+17
9.4540501e+17
9.3447832e+17
9.2791106e+17
9.8504758e+17
9.6912004e+17
9.578494e+17
9.5105931e+17
1.0076936e+18
9.9131867e+17
9.7972009e+17
9.7271596e+17
9.0122617e+17
9.0396665e+17
9.1212264e+17
9.2670256e+17
9.2581697e+17
9.285934e+17
9.3693775e+17
9.5188158e+17
9.4886421e+17
9.5166861e+17
9.6018385e+17
9.754629e+17
9.7042125e+17
9.73247e+17
9.819174e+17
9.9750523e+17
9.4909324e+17
9.8113393e+17
1.0252161e+18
1.0844149e+18
9.7484405e+17
1.0077077e+18
1.0529204e+18
1.1136301e+18
9.9895492e+17
1.0325825e+18
1.0788461e+18