/*--------------------------------*- C++ -*----------------------------------*\
| =========                 |                                                 |
| \\      /  F ield         | OpenFOAM: The Open Source CFD Toolbox           |
|  \\    /   O peration     | Version:  1.4.1-dev                             |
|   \\  /    A nd           | Web:      http://www.openfoam.org               |
|    \\/     M anipulation  |                                                 |
\*---------------------------------------------------------------------------*/

FoamFile
{
    version 2.0;
    format ascii;

    root "/home/cliffoi/OpenFOAM/cliffoi-1.4.1-dev/run/diffusionFoam";
    case "oecd_simplified_2G";
    instance "0";
    local "";

    class volScalarField;
    object Q''';
}

// * * * * * * * * * * * * * * * * * * * * * * * * * * * * * * * * * * * * * //

dimensions      [1 -1 -3 0 0 0 0];

internalField   nonuniform List<scalar> 
9280
(
0
0
0
0
0
0
0
0
0
0
0
0
0
0
0
0
0
0
0
0
0
0
0
0
0
0
0
0
0
0
0
0
0
0
0
0
0
0
0
0
0
0
0
0
0
0
0
0
0
0
0
0
0
0
0
0
0
0
0
0
0
0
0
0
0
0
0
0
0
0
0
0
0
0
0
0
0
0
0
0
0
0
0
0
0
0
0
0
0
0
0
0
0
0
0
0
0
0
0
0
0
0
0
0
0
0
0
0
0
0
0
0
0
0
0
0
0
0
0
0
0
0
0
0
0
0
0
0
0
0
0
0
0
0
0
0
0
0
0
0
0
0
0
0
0
0
0
0
0
0
0
0
0
0
0
0
0
0
0
0
0
0
0
0
0
0
0
0
0
0
0
0
0
0
0
0
0
0
0
0
0
0
0
0
0
0
0
0
0
0
0
0
0
0
0
0
0
0
0
0
0
0
0
0
0
0
0
0
0
0
0
0
0
0
0
0
0
0
0
0
0
0
0
0
0
0
0
0
0
0
0
0
0
0
0
0
0
0
0
0
0
0
0
0
0
0
0
0
0
0
0
0
0
0
0
0
0
0
0
0
0
0
0
0
0
0
0
0
0
0
0
0
0
0
0
0
0
0
0
0
0
0
0
0
0
0
0
0
0
0
0
0
0
0
0
0
0
0
0
0
0
0
0
0
0
0
0
0
0
0
0
0
0
0
0
0
0
0
0
0
0
0
0
0
0
0
0
0
0
0
0
0
0
0
0
0
0
0
0
0
0
0
0
0
0
0
0
0
0
0
0
0
0
0
0
0
0
0
0
0
0
0
0
0
0
0
0
0
0
0
0
0
0
0
0
0
0
0
0
0
0
0
0
0
0
0
0
0
0
0
0
0
0
0
0
0
0
0
0
0
0
0
0
0
0
0
0
0
0
0
0
0
0
0
0
0
0
0
0
0
0
0
0
0
0
0
0
0
0
0
0
0
0
0
0
0
0
0
0
0
0
0
0
0
0
0
0
0
0
0
0
0
0
0
0
0
0
0
0
0
0
0
0
0
0
0
0
0
0
0
0
0
0
0
0
0
0
0
0
0
0
0
0
0
0
0
0
0
0
0
0
0
0
0
0
0
0
0
0
0
0
0
0
0
0
0
0
0
0
0
0
0
0
0
0
0
0
0
0
0
0
0
0
0
0
0
0
0
0
0
0
0
0
0
0
0
0
0
0
0
0
0
0
0
0
0
0
0
0
0
0
0
0
0
0
0
0
0
0
0
0
0
0
0
0
0
0
0
0
0
0
0
0
0
0
0
0
0
0
0
0
0
0
0
0
0
0
0
0
0
0
0
0
0
0
0
0
0
0
0
0
0
0
0
0
0
0
0
0
0
0
0
0
0
0
0
0
0
0
0
0
0
0
0
0
0
0
0
0
0
0
0
0
0
0
0
0
0
0
0
0
0
0
0
0
0
0
0
0
0
0
0
0
0
0
0
0
0
0
0
0
0
0
0
0
0
0
0
0
0
0
0
0
0
0
0
0
0
0
0
0
0
0
0
0
0
0
0
0
0
0
0
0
0
0
0
0
0
0
0
0
0
0
0
0
0
0
0
0
0
0
0
0
0
0
0
0
0
0
0
0
0
0
0
0
0
0
0
0
0
0
0
0
0
0
0
0
0
0
0
0
0
0
0
0
0
0
0
0
0
0
0
0
0
0
0
0
0
0
0
0
0
0
0
0
0
0
0
0
0
0
0
0
0
0
0
0
0
0
0
0
0
0
0
0
0
0
0
0
0
0
0
0
0
0
0
0
0
0
0
0
0
0
0
0
0
0
0
0
0
0
0
0
0
0
0
0
0
0
0
0
0
0
0
0
0
0
0
0
0
0
0
0
0
0
0
0
0
0
0
0
0
0
0
0
0
0
0
0
0
0
0
0
0
0
0
0
0
0
0
0
0
0
0
0
0
0
0
0
0
0
0
0
0
0
0
0
0
0
0
0
0
0
0
0
0
0
0
0
0
0
0
0
0
0
0
0
0
0
0
0
0
0
0
0
0
0
0
0
0
0
0
0
0
0
0
0
0
0
0
0
0
0
0
0
0
0
0
0
0
0
0
0
0
0
0
0
0
0
0
0
0
0
0
0
0
0
0
0
0
0
0
0
0
0
0
0
0
0
0
0
0
0
0
0
0
0
0
0
0
0
0
0
0
0
0
0
0
0
0
0
0
0
0
0
0
0
0
0
0
0
0
0
0
0
0
0
0
0
0
0
0
0
0
0
0
0
0
0
0
0
0
0
0
0
0
0
0
0
0
0
0
0
0
0
0
0
0
0
0
0
0
0
0
0
0
0
0
0
0
0
0
0
0
0
0
0
0
0
0
0
0
0
0
0
0
4222986.8
4037151.9
3897381.6
3790021.3
4311838.6
4057379.9
3863470.4
3714240.6
4520913
4221949.1
3991943.7
3813889.6
4773592.1
4442213.7
4185972.9
3986854.8
3705392.9
3636597
3578724.8
3528330.1
3597938.5
3505911.5
3431851.6
3371244.8
3675017.2
3565794.5
3479181.2
3410076.9
3831291.6
3709114.5
3612777.5
3536784.8
3483072.9
3441481.2
3402797.3
3366891.1
3320975.4
3279049.7
3244412.4
3216839.7
3354919
3311396.8
3278258.5
3255195.5
3477273.9
3431718.4
3398727.6
3377923.6
3334227.6
3305887.1
3283639.2
3270082.1
3196897
3185956.5
3186273.9
3201129.3
3242792.5
3242538.8
3256898
3289439.3
3369888.4
3376171.8
3399360.9
3443212.9
3268867.4
3285048.9
3325621
3400362.4
3235038.9
3294050.4
3386133.1
3521673
3345035.3
3430135.6
3553129.9
3724816.5
3512857.2
3615079.6
3758702.8
3955088.7
0
0
0
0
0
0
0
0
0
0
0
0
0
0
0
0
0
0
0
0
0
0
0
0
0
0
0
0
0
0
0
0
0
0
0
0
0
0
0
0
0
0
0
0
0
0
0
0
0
0
0
0
0
0
0
0
0
0
0
0
0
0
0
0
0
0
0
0
0
0
0
0
0
0
0
0
0
0
0
0
0
0
0
0
0
0
0
0
0
0
0
0
0
0
0
0
0
0
0
0
0
0
0
0
0
0
0
0
0
0
0
0
0
0
0
0
0
0
0
0
0
0
0
0
0
0
0
0
0
0
0
0
0
0
0
0
0
0
0
0
0
0
0
0
0
0
0
0
0
0
0
0
0
0
0
0
0
0
0
0
0
0
0
0
0
0
0
0
0
0
0
0
0
0
0
0
0
0
0
0
0
0
0
0
0
0
0
0
0
0
0
0
0
0
0
0
0
0
0
0
0
0
0
0
0
0
0
0
0
0
0
0
0
0
0
0
0
0
0
0
0
0
0
0
0
0
0
0
0
0
0
0
0
0
0
0
0
0
0
0
5036866
4679525.4
4402456.8
4186685.4
5296184.5
4916657.5
4621923.3
4392099
5545210.8
5145956.3
4835586.8
4593366.9
5781342.2
5364147.6
5039590.7
4786141.4
4017911.5
3885405.1
3781190.8
3699446.9
4212196.7
4070965.4
3960035.8
3873292
4403663.6
4254737.7
4137852.4
4046618.6
4587564.2
4431664
4309360.9
4214010.9
3636069.3
3588360.6
3554820.4
3535017.2
3806414.8
3756557.4
3722126.1
3702647.1
3976519.2
3924571.2
3889097.6
3869589.8
4140912.7
4086957.3
4050392.3
4030678.7
3529532.7
3539969.7
3569025.3
3620630.2
3698708.1
3711968.8
3745237
3802617.3
3866646.8
3881987.3
3918530.4
3980551.9
4028429.5
4045422.3
4084685
4150658.7
3700162.7
3814749.6
3973672.1
4188903.4
3889736.4
4014062.5
4185334.9
4416134.4
4073922.1
4206440.9
4388290.9
4632636.8
4249447.3
4389167.4
4580422.7
4836930.6
0
0
0
0
0
0
0
0
0
0
0
0
0
0
0
0
0
0
0
0
0
0
0
0
0
0
0
0
0
0
0
0
0
0
0
0
0
0
0
0
0
0
0
0
0
0
0
0
0
0
0
0
0
0
0
0
0
0
0
0
0
0
0
0
0
0
0
0
0
0
0
0
0
0
0
0
0
0
0
0
0
0
0
0
0
0
0
0
0
0
0
0
0
0
0
0
0
0
0
0
0
0
0
0
0
0
0
0
0
0
0
0
0
0
0
0
0
0
0
0
0
0
0
0
0
0
0
0
0
0
0
0
0
0
0
0
0
0
0
0
0
0
0
0
0
0
0
0
0
0
0
0
0
0
0
0
0
0
0
0
0
0
0
0
0
0
0
0
0
0
0
0
0
0
0
0
0
0
0
0
0
0
0
0
0
0
0
0
0
0
0
0
0
0
0
0
0
0
0
0
0
0
0
0
0
0
0
0
0
0
0
0
0
0
0
0
0
0
0
0
0
0
0
0
0
0
0
0
0
0
0
0
0
0
0
0
0
0
0
0
6003697.8
5569991.5
5232385.3
4968611
6212200.4
5763206.1
5413514.2
5140173.7
6407152.3
5943965.4
5583045.2
5300809.8
6589035
6112661.5
5741297.9
5450781.2
4761873.3
4599552.6
4472249.3
4373082
4925870.3
4757590.6
4625638.2
4522911
5079465.4
4905634.2
4769344.6
4663290.1
5222874.8
5043864.6
4903524.7
4794359
4297178
4241311.4
4203660.1
4183658.4
4444376.7
4386701.3
4347997.9
4327676.5
4582290.3
4522910.5
4483204.1
4462558.5
4711050.3
4650070.3
4609417.1
4588457.1
4181933.9
4200321.2
4241952.2
4311425.3
4326379.1
4345994.7
4389752.8
4462399.8
4461629.4
4482356.6
4528061.3
4603627.8
4587858.6
4609608.8
4657114
4735386.8
4415065.1
4561287.3
4761091.7
5028715
4570467.6
4722652.1
4930323.6
5208204.3
4715781.6
4873479.6
5088437.9
5375831.1
4851332.6
5014151.1
5235879.9
5532114.3
0
0
0
0
0
0
0
0
0
0
0
0
0
0
0
0
0
0
0
0
0
0
0
0
0
0
0
0
0
0
0
0
0
0
0
0
0
0
0
0
0
0
0
0
0
0
0
0
0
0
0
0
0
0
0
0
0
0
0
0
0
0
0
0
0
0
0
0
0
0
0
0
0
0
0
0
0
0
0
0
0
0
0
0
0
0
0
0
0
0
0
0
0
0
0
0
0
0
0
0
0
0
0
0
0
0
0
0
0
0
0
0
0
0
0
0
0
0
0
0
0
0
0
0
0
0
0
0
0
0
0
0
0
0
0
0
0
0
0
0
0
0
0
0
0
0
0
0
0
0
0
0
0
0
0
0
0
0
0
0
0
0
0
0
0
0
0
0
0
0
0
0
0
0
0
0
0
0
0
0
0
0
0
0
0
0
0
0
0
0
0
0
0
0
0
0
0
0
0
0
0
0
0
0
0
0
0
0
0
0
0
0
0
0
0
0
0
0
0
0
0
0
0
0
0
0
0
0
0
0
0
0
0
0
0
0
0
0
0
0
6758412.4
6269788.8
5888712.4
5590484.9
6915882.2
6415886.5
6025782.3
5720380
7062049.9
6551507.9
6153021.4
5840949.6
7197514
6677203.6
6270943.6
5952679.8
5356462.5
5172620.7
5028498.9
4916426
5480660.8
5292314.5
5144664.3
5029877.7
5595929.3
5403388.1
5252450.1
5135133.7
5702733.4
5506290.8
5352293.2
5232622.1
4830958
4768480.1
4726938.8
4705681.1
4942393.4
4878516.7
4836146.4
4814611.2
5045769.8
4980589.7
4937447.9
4915656.3
5141509
5075116.7
5031258.9
5009231.7
4705387.1
4728087.7
4777267.8
4858059.1
4814601.8
4838189.4
4888931.8
4972070.7
4915915
4940332.4
4992533.4
5077861.1
5009743.9
5034937.8
5088500
5175867.4
4977533.8
5145116.9
5373144.2
5677601.5
5094832.7
5266851.2
5500738.4
5812841.8
5203684.8
5379830.7
5619166.4
5938374.3
5304540.5
5484523.6
5728920.2
6054721.9
0
0
0
0
0
0
0
0
0
0
0
0
0
0
0
0
0
0
0
0
0
0
0
0
0
0
0
0
0
0
0
0
0
0
0
0
0
0
0
0
0
0
0
0
0
0
0
0
0
0
0
0
0
0
0
0
0
0
0
0
0
0
0
0
0
0
0
0
0
0
0
0
0
0
0
0
0
0
0
0
0
0
0
0
0
0
0
0
0
0
0
0
0
0
0
0
0
0
0
0
0
0
0
0
0
0
0
0
0
0
0
0
0
0
0
0
0
0
0
0
0
0
0
0
0
0
0
0
0
0
0
0
0
0
0
0
0
0
0
0
0
0
0
0
0
0
0
0
0
0
0
0
0
0
0
0
0
0
0
0
0
0
0
0
0
0
0
0
0
0
0
0
0
0
0
0
0
0
0
0
0
0
0
0
0
0
0
0
0
0
0
0
0
0
0
0
0
0
0
0
0
0
0
0
0
0
0
0
0
0
0
0
0
0
0
0
0
0
0
0
0
0
0
0
0
0
0
0
0
0
0
0
0
0
0
0
0
0
0
0
7322858
6793512
6380053.2
6056049.1
7438643.8
6900952.8
6480838
6151520.8
7545408.7
7000023.9
6573765.4
6239539.1
7643662.9
7091197.8
6659279.6
6320526.5
5801531.6
5601465.9
5444625.6
5322766.4
5892768.4
5689344
5529867
5405977.8
5976870.5
5770337.9
5608419.8
5482651.1
6054243.7
5844840.6
5680667.2
5553161.6
5230028
5162510.5
5117989.6
5095746.9
5311732.1
5243172
5198038.3
5175598.9
5387010
5317485.5
5271786.5
5249167.9
5456231.4
5385817
5339597.4
5316815.9
5096498.7
5122418.8
5177250.2
5266516
5176577.1
5203175.1
5259188.1
5350218.1
5250359.6
5277589.4
5334700.2
5427366.6
5318208
5346025.2
5404153.8
5498334.7
5397837.7
5581383.6
5830474.6
6162387.9
5483997.9
5670846.6
5924285.3
6261854.2
5563423.4
5753328.4
6010786.6
6353579.8
5636496.5
5829223.8
6090390.4
6437999.8
0
0
0
0
0
0
0
0
0
0
0
0
0
0
0
0
0
0
0
0
0
0
0
0
0
0
0
0
0
0
0
0
0
0
0
0
0
0
0
0
0
0
0
0
0
0
0
0
0
0
0
0
0
0
0
0
0
0
0
0
0
0
0
0
0
0
0
0
0
0
0
0
0
0
0
0
0
0
0
0
0
0
0
0
0
0
0
0
0
0
0
0
0
0
0
0
0
0
0
0
0
0
0
0
0
0
0
0
0
0
0
0
0
0
0
0
0
0
0
0
0
0
0
0
0
0
0
0
0
0
0
0
0
0
0
0
0
0
0
0
0
0
0
0
0
0
0
0
0
0
0
0
0
0
0
0
0
0
0
0
0
0
0
0
0
0
0
0
0
0
0
0
0
0
0
0
0
0
0
0
0
0
0
0
0
0
0
0
0
0
0
0
0
0
0
0
0
0
0
0
0
0
0
0
0
0
0
0
0
0
0
0
0
0
0
0
0
0
0
0
0
0
0
0
0
0
0
0
0
0
0
0
0
0
0
0
0
0
0
0
7733888.1
7174921.2
6737800.4
6394882.3
7816536.3
7251613.4
6809722
6462981.3
7892030
7321666.3
6875412.9
6525173.8
7960761.3
7385443.9
6935215.3
6581785.6
6125271.3
5913223.3
5746970.9
5617863.9
6190313.4
5975834.5
5807670.6
5677091.2
6249706.5
6033000
5863083.7
5731154.2
6303763
6085022.2
5913505
5780341.8
5519745.6
5448511.4
5401813.5
5378884.1
5577880.4
5505893.2
5458756.8
5435693.4
5630942
5558264.9
5510727.4
5487542.7
5679214.6
5605907.6
5558004.7
5534710.5
5380463.8
5408825.5
5467895.4
5563474.8
5437447.9
5466312.9
5526250.7
5623117.6
5489459.5
5518788.2
5579523.6
5677572.4
5536777.2
5566531.2
5627996.9
5727126.6
5703577.7
5898905.2
6163485.3
6515524.9
5765006
5962722.7
6230436.9
6586540.8
5821097.8
6021003.2
6291586.3
6651408.3
5872147.7
6074051.1
6347251.3
6710462.9
0
0
0
0
0
0
0
0
0
0
0
0
0
0
0
0
0
0
0
0
0
0
0
0
0
0
0
0
0
0
0
0
0
0
0
0
0
0
0
0
0
0
0
0
0
0
0
0
0
0
0
0
0
0
0
0
0
0
0
0
0
0
0
0
0
0
0
0
0
0
0
0
0
0
0
0
0
0
0
0
0
0
0
0
0
0
0
0
0
0
0
0
0
0
0
0
0
0
0
0
0
0
0
0
0
0
0
0
0
0
0
0
0
0
0
0
0
0
0
0
0
0
0
0
0
0
0
0
0
0
0
0
0
0
0
0
0
0
0
0
0
0
0
0
0
0
0
0
0
0
0
0
0
0
0
0
0
0
0
0
0
0
0
0
0
0
0
0
0
0
0
0
0
0
0
0
0
0
0
0
0
0
0
0
0
0
0
0
0
0
0
0
0
0
0
0
0
0
0
0
0
0
0
0
0
0
0
0
0
0
0
0
0
0
0
0
0
0
0
0
0
0
0
0
0
0
0
0
0
0
0
0
0
0
0
0
0
0
0
0
8023093.1
7443282.7
6989445.6
6633117.2
8079358.7
7495492.3
7038394.9
6679445.5
8129862.6
7542355.1
7082328.7
6721023.1
8174881.1
7584127.9
7121488.4
6758079.2
6352771.7
6132180.6
5959206.7
5824920.8
6396998.3
6174732.1
6000439.1
5865136.2
6436685.1
6212911.3
6037430.5
5901211.9
6472052.3
6246931.1
6070388.4
5933350.9
5722961
5649081.1
5600846.3
5577453.4
5762422.4
5688023.9
5639489
5616007.7
5797819.1
5722953.7
5674149.1
5650588.8
5829351
5754068.3
5705022.9
5681392.5
5579657.9
5609800.3
5671931.9
5772045.9
5618338
5648833.3
5711568.9
5812574.9
5653033.3
5683847.3
5747127.6
5848937.1
5683939.7
5715039.4
5778807.2
5881335.4
5918427.9
6122148
6397726
6764015.4
5960189.2
6165553
6443281
6812352
5997660.5
6204502.9
6484163.9
6855734.2
6031050.2
6239213.3
6520599.8
6894400.1
0
0
0
0
0
0
0
0
0
0
0
0
0
0
0
0
0
0
0
0
0
0
0
0
0
0
0
0
0
0
0
0
0
0
0
0
0
0
0
0
0
0
0
0
0
0
0
0
0
0
0
0
0
0
0
0
0
0
0
0
0
0
0
0
0
0
0
0
0
0
0
0
0
0
0
0
0
0
0
0
0
0
0
0
0
0
0
0
0
0
0
0
0
0
0
0
0
0
0
0
0
0
0
0
0
0
0
0
0
0
0
0
0
0
0
0
0
0
0
0
0
0
0
0
0
0
0
0
0
0
0
0
0
0
0
0
0
0
0
0
0
0
0
0
0
0
0
0
0
0
0
0
0
0
0
0
0
0
0
0
0
0
0
0
0
0
0
0
0
0
0
0
0
0
0
0
0
0
0
0
0
0
0
0
0
0
0
0
0
0
0
0
0
0
0
0
0
0
0
0
0
0
0
0
0
0
0
0
0
0
0
0
0
0
0
0
0
0
0
0
0
0
0
0
0
0
0
0
0
0
0
0
0
0
0
0
0
0
0
0
8214663.2
7621041.7
7156091.1
6790820.2
8249430.8
7653302.3
7186330.6
6819430.4
8279379.5
7681091.8
7212377.6
6844071.9
8304679.7
7704568
7234380.8
6864886.1
6503297.7
6276982.9
6099499.1
5961735.7
6530598.2
6303237.5
6124928.9
5986529.3
6554109.3
6325845.5
6146824.4
6007875.1
6573966.5
6344937.8
6165313
6025897.8
5857197.6
5781545.2
5732286.6
5708594.6
5881519.5
5805543.1
5756097.9
5732352.1
5902457.7
5826201.5
5776595.2
5752803.4
5920135.1
5843641.8
5793899.2
5770068.7
5711233.4
5742586.8
5806787.2
5909952.6
5735071.7
5766648
5831227.9
5934951.8
5755593.2
5787362.3
5852270.4
5956476.8
5772918.2
5804851.3
5870037.7
5974653.1
6060545.7
6269878
6552791.4
6928564
6086314.3
6296670.4
6580920.1
6958417.8
6108503.8
6319743.4
6605145.5
6984130.5
6127242.7
6339230.1
6625607.1
7005849.5
0
0
0
0
0
0
0
0
0
0
0
0
0
0
0
0
0
0
0
0
0
0
0
0
0
0
0
0
0
0
0
0
0
0
0
0
0
0
0
0
0
0
0
0
0
0
0
0
0
0
0
0
0
0
0
0
0
0
0
0
0
0
0
0
0
0
0
0
0
0
0
0
0
0
0
0
0
0
0
0
0
0
0
0
0
0
0
0
0
0
0
0
0
0
0
0
0
0
0
0
0
0
0
0
0
0
0
0
0
0
0
0
0
0
0
0
0
0
0
0
0
0
0
0
0
0
0
0
0
0
0
0
0
0
0
0
0
0
0
0
0
0
0
0
0
0
0
0
0
0
0
0
0
0
0
0
0
0
0
0
0
0
0
0
0
0
0
0
0
0
0
0
0
0
0
0
0
0
0
0
0
0
0
0
0
0
0
0
0
0
0
0
0
0
0
0
0
0
0
0
0
0
0
0
0
0
0
0
0
0
0
0
0
0
0
0
0
0
0
0
0
0
0
0
0
0
0
0
0
0
0
0
0
0
0
0
0
0
0
0
8325476.5
7723865.6
7252466.9
6881993.2
8341890.7
7739097.1
7266741.2
6895493.4
8354019
7750352.2
7277288.3
6905466.9
8361934.8
7757698.9
7284172.1
6911974.6
6590285.2
6360625.9
6180503.3
6040703.8
6603161.4
6373002.7
6192485.6
6052381.6
6612672
6382142.5
6201332.2
6061001.8
6618875.3
6388101.5
6207097.8
6066617.9
5934656.2
5857967.5
5808112.7
5784250.4
5946108.1
5869264.6
5819321
5795433.9
5954560.5
5877602
5827592.6
5803687.4
5960065.9
5883031.6
5832979.2
5809062.6
5787149.6
5819218.2
5884634.4
5989587.2
5798372.8
5830549.1
5896147.8
6001368.2
5806656.3
5838913.1
5904647.8
6010067.2
5812051.7
5844362.3
5910187.2
6015738.2
6142640.6
6355243.9
6642423.4
7023700.3
6154789
6367879.7
6655693.8
7037788.1
6163760.8
6377213.1
6665497.3
7048196.5
6169611.7
6383301.8
6671894.3
7054989.4
0
0
0
0
0
0
0
0
0
0
0
0
0
0
0
0
0
0
0
0
0
0
0
0
0
0
0
0
0
0
0
0
0
0
0
0
0
0
0
0
0
0
0
0
0
0
0
0
0
0
0
0
0
0
0
0
0
0
0
0
0
0
0
0
0
0
0
0
0
0
0
0
0
0
0
0
0
0
0
0
0
0
0
0
0
0
0
0
0
0
0
0
0
0
0
0
0
0
0
0
0
0
0
0
0
0
0
0
0
0
0
0
0
0
0
0
0
0
0
0
0
0
0
0
0
0
0
0
0
0
0
0
0
0
0
0
0
0
0
0
0
0
0
0
0
0
0
0
0
0
0
0
0
0
0
0
0
0
0
0
0
0
0
0
0
0
0
0
0
0
0
0
0
0
0
0
0
0
0
0
0
0
0
0
0
0
0
0
0
0
0
0
0
0
0
0
0
0
0
0
0
0
0
0
0
0
0
0
0
0
0
0
0
0
0
0
0
0
0
0
0
0
0
0
0
0
0
0
0
0
0
0
0
0
0
0
0
0
0
0
8365687.9
7761183.7
7287436.2
6915057.8
8365305.8
7760831.9
7287104.4
6914739
8360792.3
7756647.4
7283180.4
6911021.8
8352129.3
7748613.2
7275648.3
6903890.9
6621811
6390918
6209819.7
6069266.6
6621500.6
6390612.9
6209518.1
6068967.4
6617947.3
6387189.3
6206196
6065723.4
6611136.7
6380633
6199839.5
6059520.9
5962660.3
5885589.2
5835516.1
5811594.4
5962363.1
5885293.7
5835222.3
5811302.2
5959177.2
5882148.1
5832100.6
5808188.6
5953089.1
5876139
5826137.9
5802240.6
5814594.4
5846932.2
5912802
6018417.9
5814303.5
5846642.1
5912512
6018126.5
5811181.8
5843495
5909319.9
6014866.9
5805216.3
5837477.7
5903212.8
6008625.9
6172379.3
6386184.7
6674925.8
7058210.4
6172084.5
6385883.5
6674614.2
7057883.1
6168730.4
6382401.7
6670963.4
7054011.7
6162303.2
6375724.7
6663958.3
7046580.3
0
0
0
0
0
0
0
0
0
0
0
0
0
0
0
0
0
0
0
0
0
0
0
0
0
0
0
0
0
0
0
0
0
0
0
0
0
0
0
0
0
0
0
0
0
0
0
0
0
0
0
0
0
0
0
0
0
0
0
0
0
0
0
0
0
0
0
0
0
0
0
0
0
0
0
0
0
0
0
0
0
0
0
0
0
0
0
0
0
0
0
0
0
0
0
0
0
0
0
0
0
0
0
0
0
0
0
0
0
0
0
0
0
0
0
0
0
0
0
0
0
0
0
0
0
0
0
0
0
0
0
0
0
0
0
0
0
0
0
0
0
0
0
0
0
0
0
0
0
0
0
0
0
0
0
0
0
0
0
0
0
0
0
0
0
0
0
0
0
0
0
0
0
0
0
0
0
0
0
0
0
0
0
0
0
0
0
0
0
0
0
0
0
0
0
0
0
0
0
0
0
0
0
0
0
0
0
0
0
0
0
0
0
0
0
0
0
0
0
0
0
0
0
0
0
0
0
0
0
0
0
0
0
0
0
0
0
0
0
0
8339275.9
7736691.2
7264472.2
6893312.4
8322168.2
7720822.5
7249596.6
6879233.3
8300719.9
7700926.9
7230946.3
6861582.2
8274821.6
7676902.7
7208425.5
6840268.1
6601036
6370912.4
6190418
6050329.8
6587594.5
6357978.4
6177883.4
6038103.2
6570743.5
6341764.5
6162171
6022777.5
6550395.8
6322186.4
6143198.8
6004272.3
5944069
5867237.1
5817304.9
5793428.9
5932071
5855396.7
5805556.4
5781708.6
5917032.3
5840555.9
5790830.8
5767018.2
5898873.9
5822636.5
5773050.5
5749280.3
5796377.7
5828560.9
5894160.8
5999373.2
5784621
5816699.2
5882118
5987062
5769884.6
5801830.6
5867021.9
5971628.7
5752090.9
5783877.1
5848793.4
5952992.8
6152772.1
6365821.1
6653565.9
7035553.8
6140089
6352640.8
6639733.9
7020877.2
6124188.8
6336116.6
6622392.1
7002476.1
6104988.9
6316162.9
6601450.9
6980255.8
0
0
0
0
0
0
0
0
0
0
0
0
0
0
0
0
0
0
0
0
0
0
0
0
0
0
0
0
0
0
0
0
0
0
0
0
0
0
0
0
0
0
0
0
0
0
0
0
0
0
0
0
0
0
0
0
0
0
0
0
0
0
0
0
0
0
0
0
0
0
0
0
0
0
0
0
0
0
0
0
0
0
0
0
0
0
0
0
0
0
0
0
0
0
0
0
0
0
0
0
0
0
0
0
0
0
0
0
0
0
0
0
0
0
0
0
0
0
0
0
0
0
0
0
0
0
0
0
0
0
0
0
0
0
0
0
0
0
0
0
0
0
0
0
0
0
0
0
0
0
0
0
0
0
0
0
0
0
0
0
0
0
0
0
0
0
0
0
0
0
0
0
0
0
0
0
0
0
0
0
0
0
0
0
0
0
0
0
0
0
0
0
0
0
0
0
0
0
0
0
0
0
0
0
0
0
0
0
0
0
0
0
0
0
0
0
0
0
0
0
0
0
0
0
0
0
0
0
0
0
0
0
0
0
0
0
0
0
0
0
8244340.8
7648627.1
7181918.9
6815181.2
8209121.5
7615955.2
7151290.3
6786192.2
8168984.1
7578720.4
7116383
6753151.9
8123724.9
7536733.6
7077019
6715891.2
6526446
6299142
6120867.2
5982490.3
6498769.9
6272511.1
6095059.1
5957316.6
6467224.2
6242155.3
6065639.8
5928619.2
6431646.8
6207917.5
6032456
5896247.9
5877499.8
5801543.6
5752121.2
5728400.7
5852796.9
5777165.4
5727931.9
5704269
5824635.3
5749373.1
5700354.7
5676757.5
5792867.1
5718020.8
5669244.7
5645721.6
5731145.8
5762744
5827336.7
5931056.7
5706938.5
5738319.7
5802538.9
5905705.6
5679341.2
5710475.8
5774270.1
5876807
5648209.1
5679066.4
5742382.8
5844210.9
6082389
6292676.1
6576802.2
6954102
6056271.6
6265534.5
6548318.6
6923879.8
6026500.7
6234597.5
6515853.4
6889434.1
5992922.5
6199705.9
6479240
6850588.9
0
0
0
0
0
0
0
0
0
0
0
0
0
0
0
0
0
0
0
0
0
0
0
0
0
0
0
0
0
0
0
0
0
0
0
0
0
0
0
0
0
0
0
0
0
0
0
0
0
0
0
0
0
0
0
0
0
0
0
0
0
0
0
0
0
0
0
0
0
0
0
0
0
0
0
0
0
0
0
0
0
0
0
0
0
0
0
0
0
0
0
0
0
0
0
0
0
0
0
0
0
0
0
0
0
0
0
0
0
0
0
0
0
0
0
0
0
0
0
0
0
0
0
0
0
0
0
0
0
0
0
0
0
0
0
0
0
0
0
0
0
0
0
0
0
0
0
0
0
0
0
0
0
0
0
0
0
0
0
0
0
0
0
0
0
0
0
0
0
0
0
0
0
0
0
0
0
0
0
0
0
0
0
0
0
0
0
0
0
0
0
0
0
0
0
0
0
0
0
0
0
0
0
0
0
0
0
0
0
0
0
0
0
0
0
0
0
0
0
0
0
0
0
0
0
0
0
0
0
0
0
0
0
0
0
0
0
0
0
0
8073116.2
7489783.4
7032999.7
6674221.1
8016905.6
7437635.4
6984104.6
6627931.8
7954816
7380032.6
6930091.7
6576793.2
7886545.9
7316694.8
6870697.6
6520554.4
6391856
6169621.8
5995336.5
5860034.9
6347650.4
6127073.2
5954091.2
5819793.8
6298808.9
6080057.5
5908511.1
5775319.8
6245090.3
6028341.3
5858368.6
5726389.6
5757326.8
5682944.6
5634439
5610999.1
5717831.2
5643963.2
5595757.7
5572410.5
5674178.1
5600876.8
5553002.2
5529757.6
5626147.8
5553467.7
5505956.2
5482824.9
5613379.7
5643928.2
5706711.7
5807749.2
5574673.2
5604880.1
5667073.7
5767235.3
5531891.4
5561722.9
5623267.2
5722464.3
5484818.1
5514239
5575072.5
5673212.5
5955364.6
6160681.4
6438292.1
6807147.2
5913635.8
6117326.3
6392803.3
6758890.7
5867525.9
6069423.3
6342546.5
6705579.4
5816805.8
6016735.4
6287274.1
6646951.5
0
0
0
0
0
0
0
0
0
0
0
0
0
0
0
0
0
0
0
0
0
0
0
0
0
0
0
0
0
0
0
0
0
0
0
0
0
0
0
0
0
0
0
0
0
0
0
0
0
0
0
0
0
0
0
0
0
0
0
0
0
0
0
0
0
0
0
0
0
0
0
0
0
0
0
0
0
0
0
0
0
0
0
0
0
0
0
0
0
0
0
0
0
0
0
0
0
0
0
0
0
0
0
0
0
0
0
0
0
0
0
0
0
0
0
0
0
0
0
0
0
0
0
0
0
0
0
0
0
0
0
0
0
0
0
0
0
0
0
0
0
0
0
0
0
0
0
0
0
0
0
0
0
0
0
0
0
0
0
0
0
0
0
0
0
0
0
0
0
0
0
0
0
0
0
0
0
0
0
0
0
0
0
0
0
0
0
0
0
0
0
0
0
0
0
0
0
0
0
0
0
0
0
0
0
0
0
0
0
0
0
0
0
0
0
0
0
0
0
0
0
0
0
0
0
0
0
0
0
0
0
0
0
0
0
0
0
0
0
0
7811769
7247319
6805636.9
6458943.8
7730135
7171579.8
6734603.4
6391669.6
7641269.9
7089129.9
6657269.7
6318419.8
7544777.3
6999600.7
6573288.7
6238863.2
6186233.5
5971671.3
5803416.8
5672760.9
6121957.9
5909775.4
5743389.8
5614172.9
6051963.1
5842362.3
5678003
5550346
5975930.2
5769122.2
5606954
5480982.8
5573501.2
5501499.4
5454384.8
5431377.9
5515981.2
5444717.3
5398034.9
5375164.2
5453312.1
5382848.2
5336634.9
5313912.9
5385200.2
5315601
5269895.2
5247334.7
5433218.9
5462192.6
5522250.9
5619237
5376840.7
5405329.3
5464545.2
5560276.4
5315412.1
5343375.7
5401679.2
5496049.4
5248643.5
5276040.6
5333357.9
5426256.1
5761226.4
5959005.3
6226717.4
6582723.3
5700519.9
5895955.9
6160587.2
6512588.9
5634398.1
5827289.5
6088572.4
6436219.7
5562553.7
5752688.5
6010341.3
6353265.1
0
0
0
0
0
0
0
0
0
0
0
0
0
0
0
0
0
0
0
0
0
0
0
0
0
0
0
0
0
0
0
0
0
0
0
0
0
0
0
0
0
0
0
0
0
0
0
0
0
0
0
0
0
0
0
0
0
0
0
0
0
0
0
0
0
0
0
0
0
0
0
0
0
0
0
0
0
0
0
0
0
0
0
0
0
0
0
0
0
0
0
0
0
0
0
0
0
0
0
0
0
0
0
0
0
0
0
0
0
0
0
0
0
0
0
0
0
0
0
0
0
0
0
0
0
0
0
0
0
0
0
0
0
0
0
0
0
0
0
0
0
0
0
0
0
0
0
0
0
0
0
0
0
0
0
0
0
0
0
0
0
0
0
0
0
0
0
0
0
0
0
0
0
0
0
0
0
0
0
0
0
0
0
0
0
0
0
0
0
0
0
0
0
0
0
0
0
0
0
0
0
0
0
0
0
0
0
0
0
0
0
0
0
0
0
0
0
0
0
0
0
0
0
0
0
0
0
0
0
0
0
0
0
0
0
0
0
0
0
0
7440240.4
6902604.6
6482294.5
6152650.9
7327223.3
6797736.2
6383904.7
6059417.1
7205275.7
6684576.1
6277722.7
5958782.4
7073936.1
6562693.9
6163341.2
5850356.4
5893522.6
5689728
5529922.4
5405768.4
5804387.5
5603836.1
5446571.7
5324371.3
5708157.8
5511089
5356551.1
5236445.4
5604455.5
5411117.1
5259497
5141631.3
5311334.1
5242667.2
5197508.7
5175122.9
5231386.3
5163721
5119150.9
5096953
5145013.4
5078421.4
5034481.3
5012484.4
5051858.9
4986412.9
4943144.7
4921360.6
5176227
5203014
5259268
5350577.5
5097837.3
5123968
5179077.5
5268675.6
5013132
5038557.5
5092436.6
5180194
4921752.8
4946420.3
4998977.9
5084757.7
5484659.6
5671814.4
5925540.7
6263351.8
5400369.2
5584309.1
5833796.1
6166084.1
5309316.7
5489793.9
5734711.9
6061043.4
5211117.1
5387870
5627870.9
5947788.3
0
0
0
0
0
0
0
0
0
0
0
0
0
0
0
0
0
0
0
0
0
0
0
0
0
0
0
0
0
0
0
0
0
0
0
0
0
0
0
0
0
0
0
0
0
0
0
0
0
0
0
0
0
0
0
0
0
0
0
0
0
0
0
0
0
0
0
0
0
0
0
0
0
0
0
0
0
0
0
0
0
0
0
0
0
0
0
0
0
0
0
0
0
0
0
0
0
0
0
0
0
0
0
0
0
0
0
0
0
0
0
0
0
0
0
0
0
0
0
0
0
0
0
0
0
0
0
0
0
0
0
0
0
0
0
0
0
0
0
0
0
0
0
0
0
0
0
0
0
0
0
0
0
0
0
0
0
0
0
0
0
0
0
0
0
0
0
0
0
0
0
0
0
0
0
0
0
0
0
0
0
0
0
0
0
0
0
0
0
0
0
0
0
0
0
0
0
0
0
0
0
0
0
0
0
0
0
0
0
0
0
0
0
0
0
0
0
0
0
0
0
0
0
0
0
0
0
0
0
0
0
0
0
0
0
0
0
0
0
0
6932738.9
6431655
6040347.8
5733742.5
6781221.7
6291026.4
5908330.7
5608543.5
6618936.4
6140387.5
5766887.7
5474369.5
6445463.5
5979342.4
5615638
5330848.4
5492895.1
5303542.9
5155037.1
5039559.6
5373089.2
5187985
5042793.6
4929854.3
5244655.4
5064065.2
4922389.6
4812137.8
5107225.8
4931415.9
4793455.6
4686036.9
4951555
4887327.9
4844772.7
4823211.3
4843725.5
4780789.3
4738985.7
4717653.6
4727990.8
4666413.9
4625396.2
4604294.5
4603972.3
4543816.7
4503611.7
4482732.8
4823325.8
4847178.3
4898316.9
4981973.7
4717463.8
4740438.1
4790052.6
4871431.1
4603767
4625791.8
4673767.2
4752699.9
4481824.6
4502817.8
4549026.3
4625330.9
5105365.8
5278117.9
5512833.6
5825853.1
4991639.2
5160096.9
5389137.7
5694747.6
4869492.1
5033343.2
5256295.1
5553952.7
4738457.2
4897367.3
5113789.1
5402917.3
0
0
0
0
0
0
0
0
0
0
0
0
0
0
0
0
0
0
0
0
0
0
0
0
0
0
0
0
0
0
0
0
0
0
0
0
0
0
0
0
0
0
0
0
0
0
0
0
0
0
0
0
0
0
0
0
0
0
0
0
0
0
0
0
0
0
0
0
0
0
0
0
0
0
0
0
0
0
0
0
0
0
0
0
0
0
0
0
0
0
0
0
0
0
0
0
0
0
0
0
0
0
0
0
0
0
0
0
0
0
0
0
0
0
0
0
0
0
0
0
0
0
0
0
0
0
0
0
0
0
0
0
0
0
0
0
0
0
0
0
0
0
0
0
0
0
0
0
0
0
0
0
0
0
0
0
0
0
0
0
0
0
0
0
0
0
0
0
0
0
0
0
0
0
0
0
0
0
0
0
0
0
0
0
0
0
0
0
0
0
0
0
0
0
0
0
0
0
0
0
0
0
0
0
0
0
0
0
0
0
0
0
0
0
0
0
0
0
0
0
0
0
0
0
0
0
0
0
0
0
0
0
0
0
0
0
0
0
0
0
6260430.6
5807536.6
5454237.1
5177639.6
6063537.5
5624679.9
5282397.4
5014452.2
5854587.8
5430575.4
5099914.3
4841069.5
5633532.1
5225158
4906702.5
4657381.3
4960458.9
4789691.9
4655639.9
4551191.2
4804056.7
4638584.5
4508621
4407264.9
4637786.1
4477841.7
4352125.2
4253960.7
4461509.1
4307294.5
4185950.6
4091041.5
4471300.1
4412616.8
4373239.3
4352562.8
4329621.8
4272444.7
4233891.1
4213377.3
4178615.6
4122952.1
4085191.3
4064771.6
4018007.1
3963825.7
3926786
3906349.6
4351216.9
4371080.7
4415377.7
4488852.2
4211516
4230131.1
4272348
4342764.9
4062287.6
4079503
4119438.2
4186534
3903091
3918709.9
3956113.6
4019574.4
4598040.2
4751648.3
4961066.9
5241049.7
4447713.3
4595625.4
4797529.1
5067704.6
4286902.9
4428682.3
4622510.9
4882161.3
4114970
4250121.6
4435251.5
4683587.8
0
0
0
0
0
0
0
0
0
0
0
0
0
0
0
0
0
0
0
0
0
0
0
0
0
0
0
0
0
0
0
0
0
0
0
0
0
0
0
0
0
0
0
0
0
0
0
0
0
0
0
0
0
0
0
0
0
0
0
0
0
0
0
0
0
0
0
0
0
0
0
0
0
0
0
0
0
0
0
0
0
0
0
0
0
0
0
0
0
0
0
0
0
0
0
0
0
0
0
0
0
0
0
0
0
0
0
0
0
0
0
0
0
0
0
0
0
0
0
0
0
0
0
0
0
0
0
0
0
0
0
0
0
0
0
0
0
0
0
0
0
0
0
0
0
0
0
0
0
0
0
0
0
0
0
0
0
0
0
0
0
0
0
0
0
0
0
0
0
0
0
0
0
0
0
0
0
0
0
0
0
0
0
0
0
0
0
0
0
0
0
0
0
0
0
0
0
0
0
0
0
0
0
0
0
0
0
0
0
0
0
0
0
0
0
0
0
0
0
0
0
0
0
0
0
0
0
0
0
0
0
0
0
0
0
0
0
0
0
0
5400520.6
5008544.1
4702841.2
4463427
5155972.1
4781095.6
4488634.8
4259452.5
4900655.8
4543497.8
4264688.9
4045984.5
4635785
4296851.8
4032002.1
3823924.2
4275222.3
4126894.2
4010000.2
3918359.4
4079111.1
3936762.7
3824329.1
3735898.5
3873622.3
3737264
3629213.5
3543840.8
3659560.3
3529102.9
3425251.7
3342667.6
3847594.5
3794807
3758357.2
3737730.7
3667286.5
3615724.2
3579647
3558565.7
3477162.7
3426545.3
3390501.4
3368567.1
3277574.1
3227474.1
3190957.2
3167582.2
3733480.7
3747237.9
3781789.2
3841226.5
3553010.1
3564537.8
3595807.2
3650719.2
3361246.7
3370020
3397410
3447115.3
3157823.6
3163077.2
3185722.8
3229247.3
3931176.7
4059123.2
4234842.3
4470980
3734633.3
3854673.2
4020139.8
4243057.5
3524213.4
3635447.9
3789615.9
3998081.9
3298433.6
3399628.6
3541103
3733529.8
0
0
0
0
0
0
0
0
0
0
0
0
0
0
0
0
0
0
0
0
0
0
0
0
0
0
0
0
0
0
0
0
0
0
0
0
0
0
0
0
0
0
0
0
0
0
0
0
0
0
0
0
0
0
0
0
0
0
0
0
0
0
0
0
0
0
0
0
0
0
0
0
0
0
0
0
0
0
0
0
0
0
0
0
0
0
0
0
0
0
0
0
0
0
0
0
0
0
0
0
0
0
0
0
0
0
0
0
0
0
0
0
0
0
0
0
0
0
0
0
0
0
0
0
0
0
0
0
0
0
0
0
0
0
0
0
0
0
0
0
0
0
0
0
0
0
0
0
0
0
0
0
0
0
0
0
0
0
0
0
0
0
0
0
0
0
0
0
0
0
0
0
0
0
0
0
0
0
0
0
0
0
0
0
0
0
0
0
0
0
0
0
0
0
0
0
0
0
0
0
0
0
0
0
0
0
0
0
0
0
0
0
0
0
0
0
0
0
0
0
0
0
0
0
0
0
0
0
0
0
0
0
0
0
0
0
0
0
0
0
4363111.6
4042771.2
3792068.7
3594658.1
4084998.6
3783463.4
3546973.6
3360171.3
3804430.2
3521754.7
3299438.8
3123122.3
3524907.4
3261003.2
3052756.8
2886803.7
3438208.7
3313457.8
3213509.3
3133317.8
3211466
3092145.2
2995716
2917419.8
2981957.3
2867777.7
2774482.9
2697583
2753032.9
2643814.6
2553425.5
2477622.6
3069311.7
3019125.9
2981419
2955762.2
2853877.6
2802838.2
2763006.7
2733938.6
2633865.9
2581159.3
2538167.7
2504371.8
2413329.2
2358407.9
2311500.5
2271924.4
2942588.5
2943196.7
2959810.6
2995692.6
2715992.9
2710336.3
2718999.4
2744985.9
2479981.5
2465939.1
2463972.8
2476704.1
2239615.6
2215116.3
2199606
2194982.9
3055320.4
3144634.4
3271370.8
3445500.4
2792440.8
2866884.8
2975527.9
3127676.9
2507816.2
2562295.9
2646763.8
2769907.9
2204008.5
2230538.6
2279886.1
2359391.4
0
0
0
0
0
0
0
0
0
0
0
0
0
0
0
0
0
0
0
0
0
0
0
0
0
0
0
0
0
0
0
0
0
0
0
0
0
0
0
0
0
0
0
0
0
0
0
0
0
0
0
0
0
0
0
0
0
0
0
0
0
0
0
0
0
0
0
0
0
0
0
0
0
0
0
0
0
0
0
0
0
0
0
0
0
0
0
0
0
0
0
0
0
0
0
0
0
0
0
0
0
0
0
0
0
0
0
0
0
0
0
0
0
0
0
0
0
0
0
0
0
0
0
0
0
0
0
0
0
0
0
0
0
0
0
0
0
0
0
0
0
0
0
0
0
0
0
0
0
0
0
0
0
0
0
0
0
0
0
0
0
0
0
0
0
0
0
0
0
0
0
0
0
0
0
0
0
0
0
0
0
0
0
0
0
0
0
0
0
0
0
0
0
0
0
0
0
0
0
0
0
0
0
0
0
0
0
0
0
0
0
0
0
0
0
0
0
0
0
0
0
0
0
0
0
0
0
0
0
0
0
0
0
0
0
0
0
0
0
0
3250187.5
3004845.1
2810540.3
2654892.8
2983886.3
2756786.7
2576283.2
2430962.1
2729063.4
2519770
2352881.9
2217924.8
2487955.7
2295907.5
2142359.8
2017739.3
2528520.2
2424322.2
2336946.2
2262389.3
2312161.5
2213311.6
2129441.3
2056809.8
2106943.8
2013898.8
1934212.2
1864430.2
1914774.4
1827943.3
1753061.4
1686971.8
2197701.3
2140765
2090135.5
2044924.6
1992629
1934858.1
1882049.6
1833236.7
1801968.4
1744922.5
1691928.2
1642058.6
1627313.4
1572348.9
1520837.1
1471942.4
2004720.2
1969530.7
1939747.7
1916116.1
1787852.3
1745671
1706770.4
1671506.3
1594752.9
1549769
1507157.7
1467256.9
1425170.9
1380331.3
1337516.3
1297103.1
1899697.2
1891801.9
1893851.7
1907091.9
1640499
1614630.3
1595054.2
1583233.2
1430705.7
1398481.6
1371966.5
1353050.4
1259772.9
1226551.5
1198872.3
1178667.7
0
0
0
0
0
0
0
0
0
0
0
0
0
0
0
0
0
0
0
0
0
0
0
0
0
0
0
0
0
0
0
0
0
0
0
0
0
0
0
0
0
0
0
0
0
0
0
0
0
0
0
0
0
0
0
0
0
0
0
0
0
0
0
0
0
0
0
0
0
0
0
0
0
0
0
0
0
0
0
0
0
0
0
0
0
0
0
0
0
0
0
0
0
0
0
0
0
0
0
0
0
0
0
0
0
0
0
0
0
0
0
0
0
0
0
0
0
0
0
0
0
0
0
0
0
0
0
0
0
0
0
0
0
0
0
0
0
0
0
0
0
0
0
0
0
0
0
0
0
0
0
0
0
0
0
0
0
0
0
0
0
0
0
0
0
0
0
0
0
0
0
0
0
0
0
0
0
0
0
0
0
0
0
0
0
0
0
0
0
0
0
0
0
0
0
0
0
0
0
0
0
0
0
0
0
0
0
0
0
0
0
0
0
0
0
0
0
0
0
0
0
0
0
0
0
0
0
0
0
0
0
0
0
0
0
0
0
0
0
0
2261930.4
2086457.5
1945871.2
1831450.6
2051627
1891997.1
1763914.3
1659456
1857239.3
1712736.8
1596685.4
1501903.9
1678944.2
1548993.5
1444594
1359249.1
1736573.6
1656214.3
1586567.2
1524766
1572608.9
1498813
1434620.2
1377438
1422944.8
1355681
1296996.1
1244552.1
1288034.1
1227221.8
1174002.8
1126274.8
1468671.9
1416718
1367793.3
1321160.5
1325338.4
1276915.2
1231179.4
1187484.2
1196615.8
1151929.3
1109614.5
1069105.4
1082484.9
1041512.5
1002582.2
965201.96
1276399
1233370.3
1192201.2
1153284.7
1145472.9
1105047.3
1066351.3
1029771.1
1030099.8
992529.99
956547.53
922521.77
929119.23
894293.68
860882.88
829240
1117297.2
1085232.8
1058456.7
1038778.5
995948.73
965810.81
940613.25
922003.78
891051.04
862986.87
839472.35
821996.45
799922.95
773715
751657.96
735099.52
0
0
0
0
0
0
0
0
0
0
0
0
0
0
0
0
0
0
0
0
0
0
0
0
0
0
0
0
0
0
0
0
0
0
0
0
0
0
0
0
0
0
0
0
0
0
0
0
0
0
0
0
0
0
0
0
0
0
0
0
0
0
0
0
0
0
0
0
0
0
0
0
0
0
0
0
0
0
0
0
0
0
0
0
0
0
0
0
0
0
0
0
0
0
0
0
0
0
0
0
0
0
0
0
0
0
0
0
0
0
0
0
0
0
0
0
0
0
0
0
0
0
0
0
0
0
0
0
0
0
0
0
0
0
0
0
0
0
0
0
0
0
0
0
0
0
0
0
0
0
0
0
0
0
0
0
0
0
0
0
0
0
0
0
0
0
0
0
0
0
0
0
0
0
0
0
0
0
0
0
0
0
0
0
0
0
0
0
0
0
0
0
0
0
0
0
0
0
0
0
0
0
0
0
0
0
0
0
0
0
0
0
0
0
0
0
0
0
0
0
0
0
0
0
0
0
0
0
0
0
0
0
0
0
0
0
0
0
0
0
1517611.8
1401984.9
1309126.8
1233169.6
1376178.1
1275389.7
1194545.8
1128354.8
1262654.6
1178785.4
1111588.5
1056335.6
1197600.2
1135985.7
1086057.6
1044008.6
1169670.5
1115273.7
1067456.7
1024339.2
1072826.3
1024961.9
982521.45
943847.8
1009516
968531.17
931468.51
896933.84
1007109.7
973395.23
941450.95
910267.01
984539.95
947069.5
911251.98
876667.99
907734.57
873328.53