/*--------------------------------*- C++ -*----------------------------------*\
| =========                 |                                                 |
| \\      /  F ield         | OpenFOAM: The Open Source CFD Toolbox           |
|  \\    /   O peration     | Version:  1.4.1-dev                             |
|   \\  /    A nd           | Web:      http://www.openfoam.org               |
|    \\/     M anipulation  |                                                 |
\*---------------------------------------------------------------------------*/

FoamFile
{
    version 2.0;
    format ascii;

    root "/home/cliffoi/OpenFOAM/cliffoi-1.4.1-dev/run/diffusionFoam";
    case "oecd_simplified_2G";
    instance "0";
    local "";

    class volScalarField;
    object Tfuel;
}

// * * * * * * * * * * * * * * * * * * * * * * * * * * * * * * * * * * * * * //

dimensions      [0 0 0 1 0 0 0];

internalField   nonuniform List<scalar> 
9280
(
0
0
0
0
0
0
0
0
0
0
0
0
0
0
0
0
0
0
0
0
0
0
0
0
0
0
0
0
0
0
0
0
0
0
0
0
0
0
0
0
0
0
0
0
0
0
0
0
0
0
0
0
0
0
0
0
0
0
0
0
0
0
0
0
0
0
0
0
0
0
0
0
0
0
0
0
0
0
0
0
0
0
0
0
0
0
0
0
0
0
0
0
0
0
0
0
0
0
0
0
0
0
0
0
0
0
0
0
0
0
0
0
0
0
0
0
0
0
0
0
0
0
0
0
0
0
0
0
0
0
0
0
0
0
0
0
0
0
0
0
0
0
0
0
0
0
0
0
0
0
0
0
0
0
0
0
0
0
0
0
0
0
0
0
0
0
0
0
0
0
0
0
0
0
0
0
0
0
0
0
0
0
0
0
0
0
0
0
0
0
0
0
0
0
0
0
0
0
0
0
0
0
0
0
0
0
0
0
0
0
0
0
0
0
0
0
0
0
0
0
0
0
0
0
0
0
0
0
0
0
0
0
0
0
0
0
0
0
0
0
0
0
0
0
0
0
0
0
0
0
0
0
0
0
0
0
0
0
0
0
0
0
0
0
0
0
0
0
0
0
0
0
0
0
0
0
0
0
0
0
0
0
0
0
0
0
0
0
0
0
0
0
0
0
0
0
0
0
0
0
0
0
0
0
0
0
0
0
0
0
0
0
0
0
0
0
0
0
0
0
0
0
0
0
0
0
0
0
0
0
0
0
0
0
0
0
0
0
0
0
0
0
0
0
0
0
0
0
0
0
0
0
0
0
0
0
0
0
0
0
0
0
0
0
0
0
0
0
0
0
0
0
0
0
0
0
0
0
0
0
0
0
0
0
0
0
0
0
0
0
0
0
0
0
0
0
0
0
0
0
0
0
0
0
0
0
0
0
0
0
0
0
0
0
0
0
0
0
0
0
0
0
0
0
0
0
0
0
0
0
0
0
0
0
0
0
0
0
0
0
0
0
0
0
0
0
0
0
0
0
0
0
0
0
0
0
0
0
0
0
0
0
0
0
0
0
0
0
0
0
0
0
0
0
0
0
0
0
0
0
0
0
0
0
0
0
0
0
0
0
0
0
0
0
0
0
0
0
0
0
0
0
0
0
0
0
0
0
0
0
0
0
0
0
0
0
0
0
0
0
0
0
0
0
0
0
0
0
0
0
0
0
0
0
0
0
0
0
0
0
0
0
0
0
0
0
0
0
0
0
0
0
0
0
0
0
0
0
0
0
0
0
0
0
0
0
0
0
0
0
0
0
0
0
0
0
0
0
0
0
0
0
0
0
0
0
0
0
0
0
0
0
0
0
0
0
0
0
0
0
0
0
0
0
0
0
0
0
0
0
0
0
0
0
0
0
0
0
0
0
0
0
0
0
0
0
0
0
0
0
0
0
0
0
0
0
0
0
0
0
0
0
0
0
0
0
0
0
0
0
0
0
0
0
0
0
0
0
0
0
0
0
0
0
0
0
0
0
0
0
0
0
0
0
0
0
0
0
0
0
0
0
0
0
0
0
0
0
0
0
0
0
0
0
0
0
0
0
0
0
0
0
0
0
0
0
0
0
0
0
0
0
0
0
0
0
0
0
0
0
0
0
0
0
0
0
0
0
0
0
0
0
0
0
0
0
0
0
0
0
0
0
0
0
0
0
0
0
0
0
0
0
0
0
0
0
0
0
0
0
0
0
0
0
0
0
0
0
0
0
0
0
0
0
0
0
0
0
0
0
0
0
0
0
0
0
0
0
0
0
0
0
0
0
0
0
0
0
0
0
0
0
0
0
0
0
0
0
0
0
0
0
0
0
0
0
0
0
0
0
0
0
0
0
0
0
0
0
0
0
0
0
0
0
0
0
0
0
0
0
0
0
0
0
0
0
0
0
0
0
0
0
0
0
0
0
0
0
0
0
0
0
0
0
0
0
0
0
0
0
0
0
0
0
0
0
0
0
0
0
0
0
0
0
0
0
0
0
0
0
0
0
0
0
0
0
0
0
0
0
0
0
0
0
0
0
0
0
0
0
0
0
0
0
0
0
0
0
0
0
0
0
0
0
0
0
0
0
0
0
0
0
0
0
0
0
0
0
0
0
0
0
0
0
0
0
0
0
0
0
0
0
0
0
0
0
0
0
0
0
0
0
0
0
0
0
0
0
0
0
0
0
0
0
0
0
0
0
0
0
0
0
0
0
0
0
0
0
0
0
0
0
0
0
0
0
0
0
0
0
0
0
0
0
0
0
0
0
0
0
0
0
0
0
0
0
0
0
0
0
0
0
0
0
0
0
0
0
0
0
0
0
0
0
0
0
0
0
0
0
0
0
0
0
0
0
0
0
0
0
0
0
0
0
0
0
669.81595
668.98859
667.1828
664.52465
711.12918
710.74246
709.19763
706.62841
750.37615
750.17031
748.68533
746.06022
787.89789
787.76339
786.2451
783.48992
661.1021
656.97913
652.20409
646.81477
703.13847
698.80853
693.70189
687.86859
742.40506
737.80741
732.33718
726.05041
779.61452
774.71209
768.8574
762.11068
640.84156
634.30939
627.23896
619.6474
681.34855
674.17363
666.36921
657.95501
718.99209
711.19822
702.69725
693.51103
754.52043
746.12558
736.9569
727.038
611.54861
602.95312
593.86764
584.29404
648.94554
639.35005
629.17206
618.40847
683.65525
673.13953
661.96708
650.13395
716.3858
705.01071
692.91623
680.09839
574.22758
563.6539
552.54396
540.84549
607.04808
595.0696
582.43901
569.10646
637.6279
624.42685
610.49673
595.78895
666.54457
652.23196
637.12542
621.17466
0
0
0
0
0
0
0
0
0
0
0
0
0
0
0
0
0
0
0
0
0
0
0
0
0
0
0
0
0
0
0
0
0
0
0
0
0
0
0
0
0
0
0
0
0
0
0
0
0
0
0
0
0
0
0
0
0
0
0
0
0
0
0
0
0
0
0
0
0
0
0
0
0
0
0
0
0
0
0
0
0
0
0
0
0
0
0
0
0
0
0
0
0
0
0
0
0
0
0
0
0
0
0
0
0
0
0
0
0
0
0
0
0
0
0
0
0
0
0
0
0
0
0
0
0
0
0
0
0
0
0
0
0
0
0
0
0
0
0
0
0
0
0
0
0
0
0
0
0
0
0
0
0
0
0
0
0
0
0
0
0
0
0
0
0
0
0
0
0
0
0
0
0
0
0
0
0
0
0
0
0
0
0
0
0
0
0
0
0
0
0
0
0
0
0
0
0
0
0
0
0
0
0
0
0
0
0
0
0
0
0
0
0
0
0
0
0
0
0
0
0
0
0
0
0
0
0
0
0
0
0
0
0
0
0
0
0
0
0
0
823.84997
823.73218
822.13477
819.21318
858.3077
858.17505
856.47377
853.36769
891.30952
891.14148
889.32179
886.02219
922.87766
922.65978
920.71265
917.21546
815.09093
809.86671
803.61985
796.41428
848.98698
843.43573
836.79759
829.14002
881.37922
875.50207
868.47851
860.37933
912.31069
906.11235
898.71208
890.18385
788.30158
779.32315
769.51176
758.89254
820.51745
810.97358
800.543
789.25224
851.26167
841.17138
830.14475
818.20964
880.5873
869.97035
858.37089
845.81799
747.48356
735.29591
722.33345
708.5921
777.12038
764.15912
750.37257
735.75648
805.38602
791.68618
777.1144
761.66624
832.3325
817.92723
802.60665
786.36608
694.05873
678.70943
662.50735
645.3996
720.29705
703.96918
686.73413
668.53627
745.32721
728.07103
709.8571
690.62717
769.19042
751.05226
731.90923
711.70062
0
0
0
0
0
0
0
0
0
0
0
0
0
0
0
0
0
0
0
0
0
0
0
0
0
0
0
0
0
0
0
0
0
0
0
0
0
0
0
0
0
0
0
0
0
0
0
0
0
0
0
0
0
0
0
0
0
0
0
0
0
0
0
0
0
0
0
0
0
0
0
0
0
0
0
0
0
0
0
0
0
0
0
0
0
0
0
0
0
0
0
0
0
0
0
0
0
0
0
0
0
0
0
0
0
0
0
0
0
0
0
0
0
0
0
0
0
0
0
0
0
0
0
0
0
0
0
0
0
0
0
0
0
0
0
0
0
0
0
0
0
0
0
0
0
0
0
0
0
0
0
0
0
0
0
0
0
0
0
0
0
0
0
0
0
0
0
0
0
0
0
0
0
0
0
0
0
0
0
0
0
0
0
0
0
0
0
0
0
0
0
0
0
0
0
0
0
0
0
0
0
0
0
0
0
0
0
0
0
0
0
0
0
0
0
0
0
0
0
0
0
0
0
0
0
0
0
0
0
0
0
0
0
0
0
0
0
0
0
0
953.02841
952.75007
950.66989
946.97401
981.77726
981.4305
979.214
975.32038
1009.1412
1008.7202
1006.3659
1002.277
1035.1401
1034.6405
1032.1482
1027.8677
941.8105
935.29785
927.53139
918.58801
969.90292
963.08434
954.96338
945.6197
996.61163
989.49653
981.0336
971.30511
1021.9615
1014.5601
1005.7683
995.67095
908.52977
897.40649
885.25758
872.11326
935.11761
923.50874
910.83391
897.12445
960.37746
948.30399
935.12687
920.87843
984.33632
971.81937
958.16353
943.40211
857.99521
842.91673
826.88247
809.88755
882.4028
866.68277
849.96913
832.25687
905.58187
889.25144
871.8921
853.49867
927.559
910.64887
892.67684
873.63763
791.91629
772.94021
752.91535
731.77866
813.52977
793.75835
772.89715
750.88099
834.05444
813.52903
791.87559
769.02692
853.51404
832.27489
809.872
786.23633
0
0
0
0
0
0
0
0
0
0
0
0
0
0
0
0
0
0
0
0
0
0
0
0
0
0
0
0
0
0
0
0
0
0
0
0
0
0
0
0
0
0
0
0
0
0
0
0
0
0
0
0
0
0
0
0
0
0
0
0
0
0
0
0
0
0
0
0
0
0
0
0
0
0
0
0
0
0
0
0
0
0
0
0
0
0
0
0
0
0
0
0
0
0
0
0
0
0
0
0
0
0
0
0
0
0
0
0
0
0
0
0
0
0
0
0
0
0
0
0
0
0
0
0
0
0
0
0
0
0
0
0
0
0
0
0
0
0
0
0
0
0
0
0
0
0
0
0
0
0
0
0
0
0
0
0
0
0
0
0
0
0
0
0
0
0
0
0
0
0
0
0
0
0
0
0
0
0
0
0
0
0
0
0
0
0
0
0
0
0
0
0
0
0
0
0
0
0
0
0
0
0
0
0
0
0
0
0
0
0
0
0
0
0
0
0
0
0
0
0
0
0
0
0
0
0
0
0
0
0
0
0
0
0
0
0
0
0
0
0
1059.7963
1059.2153
1056.5861
1052.1185
1083.1352
1082.471
1079.707
1075.0576
1105.1846
1104.4365
1101.5404
1096.7152
1125.9743
1125.1423
1122.1174
1117.1229
1045.9793
1038.3024
1029.1954
1018.7453
1068.6938
1060.7526
1051.3442
1040.5578
1090.1356
1081.9416
1072.2459
1061.1396
1110.3368
1101.9017
1091.9329
1080.5231
1007.0224
994.08311
979.97201
964.72333
1028.4654
1015.1248
1000.5817
984.87109
1048.6964
1034.9753
1020.023
1003.8756
1067.7475
1053.6665
1038.3277
1021.7678
948.36161
930.90194
912.34961
892.69919
968.01827
950.03864
930.93766
910.70979
986.55858
968.08794
948.46921
927.69679
1004.0131
985.07966
964.97331
943.68833
871.9331
850.01935
826.90858
802.53004
889.33707
866.7868
843.00851
817.92983
905.75235
882.60252
858.19582
832.4584
921.20606
897.49254
872.49532
846.13919
0
0
0
0
0
0
0
0
0
0
0
0
0
0
0
0
0
0
0
0
0
0
0
0
0
0
0
0
0
0
0
0
0
0
0
0
0
0
0
0
0
0
0
0
0
0
0
0
0
0
0
0
0
0
0
0
0
0
0
0
0
0
0
0
0
0
0
0
0
0
0
0
0
0
0
0
0
0
0
0
0
0
0
0
0
0
0
0
0
0
0
0
0
0
0
0
0
0
0
0
0
0
0
0
0
0
0
0
0
0
0
0
0
0
0
0
0
0
0
0
0
0
0
0
0
0
0
0
0
0
0
0
0
0
0
0
0
0
0
0
0
0
0
0
0
0
0
0
0
0
0
0
0
0
0
0
0
0
0
0
0
0
0
0
0
0
0
0
0
0
0
0
0
0
0
0
0
0
0
0
0
0
0
0
0
0
0
0
0
0
0
0
0
0
0
0
0
0
0
0
0
0
0
0
0
0
0
0
0
0
0
0
0
0
0
0
0
0
0
0
0
0
0
0
0
0
0
0
0
0
0
0
0
0
0
0
0
0
0
0
1145.5355
1144.6205
1141.4709
1136.3138
1163.9008
1162.9041
1159.6342
1154.3217
1181.1034
1180.0269
1176.6414
1171.1809
1197.1766
1196.0227
1192.5267
1186.9258
1129.3305
1120.6664
1110.4384
1098.7415
1147.1509
1138.2696
1127.7967
1115.8286
1163.8324
1154.7457
1144.0418
1131.8184
1179.4093
1170.1292
1159.2081
1146.7451
1085.6519
1071.2312
1055.528
1038.5796
1102.443
1087.7025
1071.6565
1054.3431
1118.1546
1103.1138
1086.7462
1069.0906
1132.8204
1117.4983
1100.8298
1082.854
1020.4129
1001.0442
980.47954
958.71308
1035.7894
1016.0124
995.01782
972.80002
1050.1744
1030.0149
1008.6181
985.97817
1063.5991
1043.0825
1021.3102
998.27638
935.72586
911.48338
885.9323
858.99616
949.33971
924.60187
898.53237
871.05357
962.0756
936.8749
910.32119
882.33577
973.96136
948.32918
921.32428
892.86699
0
0
0
0
0
0
0
0
0
0
0
0
0
0
0
0
0
0
0
0
0
0
0
0
0
0
0
0
0
0
0
0
0
0
0
0
0
0
0
0
0
0
0
0
0
0
0
0
0
0
0
0
0
0
0
0
0
0
0
0
0
0
0
0
0
0
0
0
0
0
0
0
0
0
0
0
0
0
0
0
0
0
0
0
0
0
0
0
0
0
0
0
0
0
0
0
0
0
0
0
0
0
0
0
0
0
0
0
0
0
0
0
0
0
0
0
0
0
0
0
0
0
0
0
0
0
0
0
0
0
0
0
0
0
0
0
0
0
0
0
0
0
0
0
0
0
0
0
0
0
0
0
0
0
0
0
0
0
0
0
0
0
0
0
0
0
0
0
0
0
0
0
0
0
0
0
0
0
0
0
0
0
0
0
0
0
0
0
0
0
0
0
0
0
0
0
0
0
0
0
0
0
0
0
0
0
0
0
0
0
0
0
0
0
0
0
0
0
0
0
0
0
0
0
0
0
0
0
0
0
0
0
0
0
0
0
0
0
0
0
1212.1539
1210.9254
1207.3243
1201.5906
1226.0684
1224.7684
1221.0676
1215.2088
1238.9524
1237.5842
1233.7895
1227.8135
1250.8375
1249.4046
1245.5218
1239.4363
1193.9159
1184.4541
1173.3294
1160.6422
1207.3857
1197.754
1186.4391
1173.5426
1219.8517
1210.0614
1198.5695
1185.4785
1231.3454
1221.408
1209.752
1196.4809
1146.4735
1130.8887
1113.9394
1095.6652
1159.1467
1143.3173
1126.1067
1107.555
1170.8715
1154.8152
1137.3624
1118.5536
1181.6787
1165.4126
1147.736
1128.6899
1076.0946
1055.2452
1033.1234
1009.7231
1087.6911
1066.5328
1044.0864
1020.346
1098.418
1076.9737
1054.2271
1030.1723
1108.3038
1086.5958
1063.5725
1039.2279
985.0244
958.99105
931.56682
902.67116
995.29156
968.88629
941.07346
911.77169
1004.7889
978.03993
949.86814
920.19136
1013.5415
986.47615
957.97396
927.95217
0
0
0
0
0
0
0
0
0
0
0
0
0
0
0
0
0
0
0
0
0
0
0
0
0
0
0
0
0
0
0
0
0
0
0
0
0
0
0
0
0
0
0
0
0
0
0
0
0
0
0
0
0
0
0
0
0
0
0
0
0
0
0
0
0
0
0
0
0
0
0
0
0
0
0
0
0
0
0
0
0
0
0
0
0
0
0
0
0
0
0
0
0
0
0
0
0
0
0
0
0
0
0
0
0
0
0
0
0
0
0
0
0
0
0
0
0
0
0
0
0
0
0
0
0
0
0
0
0
0
0
0
0
0
0
0
0
0
0
0
0
0
0
0
0
0
0
0
0
0
0
0
0
0
0
0
0
0
0
0
0
0
0
0
0
0
0
0
0
0
0
0
0
0
0
0
0
0
0
0
0
0
0
0
0
0
0
0
0
0
0
0
0
0
0
0
0
0
0
0
0
0
0
0
0
0
0
0
0
0
0
0
0
0
0
0
0
0
0
0
0
0
0
0
0
0
0
0
0
0
0
0
0
0
0
0
0
0
0
0
1261.7539
1260.2602
1256.2951
1250.1079
1271.7306
1270.18
1266.1386
1259.8574
1280.7952
1279.1917
1275.0799
1268.7125
1288.9736
1287.3213
1283.1452
1276.6992
1241.8975
1231.8241
1220.0166
1206.5796
1251.537
1241.3385
1229.392
1215.8028
1260.2913
1249.9785
1237.9052
1224.1772
1268.1864
1257.7699
1245.5816
1231.7281
1191.5976
1175.1385
1157.2562
1137.992
1200.656
1184.0202
1165.9497
1146.486
1208.8805
1192.0839
1173.8421
1154.1972
1216.2957
1199.3538
1180.9574
1161.1487
1117.3756
1095.4254
1072.1482
1047.5377
1125.6593
1103.4879
1079.9787
1055.1256
1133.1792
1110.8069
1087.0871
1062.0137
1139.9582
1117.4047
1093.4951
1068.2232
1021.5736
994.21805
965.41306
935.07516
1028.9078
1001.2876
972.2065
941.58041
1035.5659
1007.7057
978.37415
947.48682
1041.5681
1013.4916
983.93462
952.81215
0
0
0
0
0
0
0
0
0
0
0
0
0
0
0
0
0
0
0
0
0
0
0
0
0
0
0
0
0
0
0
0
0
0
0
0
0
0
0
0
0
0
0
0
0
0
0
0
0
0
0
0
0
0
0
0
0
0
0
0
0
0
0
0
0
0
0
0
0
0
0
0
0
0
0
0
0
0
0
0
0
0
0
0
0
0
0
0
0
0
0
0
0
0
0
0
0
0
0
0
0
0
0
0
0
0
0
0
0
0
0
0
0
0
0
0
0
0
0
0
0
0
0
0
0
0
0
0
0
0
0
0
0
0
0
0
0
0
0
0
0
0
0
0
0
0
0
0
0
0
0
0
0
0
0
0
0
0
0
0
0
0
0
0
0
0
0
0
0
0
0
0
0
0
0
0
0
0
0
0
0
0
0
0
0
0
0
0
0
0
0
0
0
0
0
0
0
0
0
0
0
0
0
0
0
0
0
0
0
0
0
0
0
0
0
0
0
0
0
0
0
0
0
0
0
0
0
0
0
0
0
0
0
0
0
0
0
0
0
0
1296.2898
1294.5929
1290.3584
1283.8415
1302.7661
1301.029
1296.7421
1290.1617
1308.423
1306.65
1302.3166
1295.6801
1313.2787
1311.4741
1307.1002
1300.415
1275.2461
1264.7364
1252.4449
1238.4787
1281.4927
1270.9
1258.5167
1244.4504
1286.9463
1276.2807
1263.8168
1249.6628
1291.6251
1280.8964
1268.363
1254.1334
1222.9246
1205.8525
1187.3176
1167.3624
1228.7884
1211.6008
1192.9432
1172.8582
1233.9062
1216.6176
1197.8527
1177.6544
1238.2955
1220.92
1202.0628
1181.7671
1146.0176
1123.302
1099.2226
1073.7733
1151.3768
1128.5178
1104.2883
1078.682
1156.0535
1133.0693
1108.7087
1082.9657
1160.0638
1136.9721
1112.4992
1086.6388
1046.9331
1018.6635
988.90521
957.57287
1051.6781
1023.2379
993.30182
961.78416
1055.819
1027.23
997.13895
965.45982
1059.3697
1030.6534
1000.4296
968.61229
0
0
0
0
0
0
0
0
0
0
0
0
0
0
0
0
0
0
0
0
0
0
0
0
0
0
0
0
0
0
0
0
0
0
0
0
0
0
0
0
0
0
0
0
0
0
0
0
0
0
0
0
0
0
0
0
0
0
0
0
0
0
0
0
0
0
0
0
0
0
0
0
0
0
0
0
0
0
0
0
0
0
0
0
0
0
0
0
0
0
0
0
0
0
0
0
0
0
0
0
0
0
0
0
0
0
0
0
0
0
0
0
0
0
0
0
0
0
0
0
0
0
0
0
0
0
0
0
0
0
0
0
0
0
0
0
0
0
0
0
0
0
0
0
0
0
0
0
0
0
0
0
0
0
0
0
0
0
0
0
0
0
0
0
0
0
0
0
0
0
0
0
0
0
0
0
0
0
0
0
0
0
0
0
0
0
0
0
0
0
0
0
0
0
0
0
0
0
0
0
0
0
0
0
0
0
0
0
0
0
0
0
0
0
0
0
0
0
0
0
0
0
0
0
0
0
0
0
0
0
0
0
0
0
0
0
0
0
0
0
1317.3497
1315.5178
1311.1092
1304.3827
1320.6502
1318.7954
1314.358
1307.5973
1323.1925
1321.319
1316.8586
1310.0709
1324.9866
1323.0988
1318.6211
1311.8134
1295.5452
1284.7633
1272.1712
1257.878
1298.7207
1287.8951
1275.2552
1260.91
1301.1636
1290.3038
1277.6265
1263.241
1302.8837
1291.9992
1279.295
1264.8805
1241.9716
1224.523
1205.5884
1185.211
1244.9479
1227.4399
1208.4423
1187.9985
1247.2356
1229.6817
1210.6355
1190.1405
1248.8442
1231.2576
1212.1769
1191.6457
1163.4218
1140.24
1115.673
1089.7143
1166.1397
1142.885
1118.2417
1092.2036
1168.228
1144.9172
1120.2153
1094.1161
1169.6953
1146.3449
1121.6018
1095.4599
1062.343
1033.52
1003.1854
971.2526
1064.7495
1035.8405
1005.4162
973.39032
1066.5986
1037.6236
1007.1308
975.03362
1067.8978
1038.8767
1008.336
976.18922
0
0
0
0
0
0
0
0
0
0
0
0
0
0
0
0
0
0
0
0
0
0
0
0
0
0
0
0
0
0
0
0
0
0
0
0
0
0
0
0
0
0
0
0
0
0
0
0
0
0
0
0
0
0
0
0
0
0
0
0
0
0
0
0
0
0
0
0
0
0
0
0
0
0
0
0
0
0
0
0
0
0
0
0
0
0
0
0
0
0
0
0
0
0
0
0
0
0
0
0
0
0
0
0
0
0
0
0
0
0
0
0
0
0
0
0
0
0
0
0
0
0
0
0
0
0
0
0
0
0
0
0
0
0
0
0
0
0
0
0
0
0
0
0
0
0
0
0
0
0
0
0
0
0
0
0
0
0
0
0
0
0
0
0
0
0
0
0
0
0
0
0
0
0
0
0
0
0
0
0
0
0
0
0
0
0
0
0
0
0
0
0
0
0
0
0
0
0
0
0
0
0
0
0
0
0
0
0
0
0
0
0
0
0
0
0
0
0
0
0
0
0
0
0
0
0
0
0
0
0
0
0
0
0
0
0
0
0
0
0
1326.0407
1324.1428
1319.6535
1312.8328
1326.3606
1324.4569
1319.9616
1313.1349
1325.9504
1324.0449
1319.5493
1312.7234
1324.8119
1322.9088
1318.4183
1311.6001
1303.8888
1292.9889
1280.2681
1265.836
1304.1848
1293.2786
1280.5515
1266.1129
1303.7752
1292.8719
1280.1487
1265.7149
1302.6618
1291.7706
1279.0613
1264.6433
1249.7811
1232.1748
1213.0737
1192.5211
1250.0516
1232.4387
1213.3309
1192.7715
1249.6591
1232.0526
1212.9518
1192.4004
1248.6051
1231.0178
1211.9379
1191.4089
1170.5483
1147.1748
1122.4077
1096.2409
1170.792
1147.4116
1122.6376
1096.4638
1170.4294
1147.0583
1122.2944
1096.1314
1169.4618
1146.1163
1121.3793
1095.2449
1068.6532
1039.6055
1009.0375
976.86241
1068.8691
1039.8144
1009.2393
977.05705
1068.5482
1039.5058
1008.9438
976.77561
1067.6917
1038.681
1008.1523
976.01917
0
0
0
0
0
0
0
0
0
0
0
0
0
0
0
0
0
0
0
0
0
0
0
0
0
0
0
0
0
0
0
0
0
0
0
0
0
0
0
0
0
0
0
0
0
0
0
0
0
0
0
0
0
0
0
0
0
0
0
0
0
0
0
0
0
0
0
0
0
0
0
0
0
0
0
0
0
0
0
0
0
0
0
0
0
0
0
0
0
0
0
0
0
0
0
0
0
0
0
0
0
0
0
0
0
0
0
0
0
0
0
0
0
0
0
0
0
0
0
0
0
0
0
0
0
0
0
0
0
0
0
0
0
0
0
0
0
0
0
0
0
0
0
0
0
0
0
0
0
0
0
0
0
0
0
0
0
0
0
0
0
0
0
0
0
0
0
0
0
0
0
0
0
0
0
0
0
0
0
0
0
0
0
0
0
0
0
0
0
0
0
0
0
0
0
0
0
0
0
0
0
0
0
0
0
0
0
0
0
0
0
0
0
0
0
0
0
0
0
0
0
0
0
0
0
0
0
0
0
0
0
0
0
0
0
0
0
0
0
0
1322.9451
1321.0484
1316.5685
1309.7647
1320.3481
1318.4617
1313.9979
1307.2151
1317.017
1315.1449
1310.7023
1303.9474
1312.9465
1311.0922
1306.6762
1299.9556
1300.8443
1289.9742
1277.289
1262.8979
1298.3206
1287.4805
1274.8295
1260.4763
1295.0864
1284.2855
1271.6787
1257.3746
1291.1362
1280.3834
1267.8309
1253.5869
1246.8892
1229.334
1210.2888
1189.7967
1244.5092
1226.999
1208.0021
1187.5615
1241.461
1224.0088
1205.074
1184.6996
1237.739
1220.3577
1201.4988
1181.2055
1167.8889
1144.585
1119.892
1093.8038
1165.7085
1142.4624
1117.8303
1091.8062
1162.9168
1139.7449
1115.1908
1089.2487
1159.5085
1136.4271
1111.9684
1086.1263
1066.2992
1037.3395
1006.8644
974.78745
1064.3689
1035.4797
1005.0784
973.07886
1061.8974
1033.0982
1002.7913
970.89055
1058.8799
1030.1907
999.99875
968.21842
0
0
0
0
0
0
0
0
0
0
0
0
0
0
0
0
0
0
0
0
0
0
0
0
0
0
0
0
0
0
0
0
0
0
0
0
0
0
0
0
0
0
0
0
0
0
0
0
0
0
0
0
0
0
0
0
0
0
0
0
0
0
0
0
0
0
0
0
0
0
0
0
0
0
0
0
0
0
0
0
0
0
0
0
0
0
0
0
0
0
0
0
0
0
0
0
0
0
0
0
0
0
0
0
0
0
0
0
0
0
0
0
0
0
0
0
0
0
0
0
0
0
0
0
0
0
0
0
0
0
0
0
0
0
0
0
0
0
0
0
0
0
0
0
0
0
0
0
0
0
0
0
0
0
0
0
0
0
0
0
0
0
0
0
0
0
0
0
0
0
0
0
0
0
0
0
0
0
0
0
0
0
0
0
0
0
0
0
0
0
0
0
0
0
0
0
0
0
0
0
0
0
0
0
0
0
0
0
0
0
0
0
0
0
0
0
0
0
0
0
0
0
0
0
0
0
0
0
0
0
0
0
0
0
0
0
0
0
0
0
1308.1291
1306.2964
1301.9121
1295.2324
1302.5564
1300.7486
1296.401
1289.7686
1296.218
1294.4384
1290.1325
1283.5539
1289.1026
1287.3544
1283.0948
1276.5763
1286.4623
1275.7667
1263.2786
1249.1058
1281.0557
1270.4262
1258.0127
1243.9224
1274.9058
1264.3515
1252.0227
1238.0262
1268.0009
1257.5307
1245.2968
1231.4054
1233.3357
1216.0384
1197.2696
1177.072
1228.2423
1211.0422
1192.3775
1172.2908
1222.4484
1205.3588
1186.8125
1166.8519
1215.9424
1198.9768
1180.5634
1160.7443
1155.4765
1132.5023
1108.1564
1082.4327
1150.8128
1127.9625
1103.7471
1078.1604
1145.5075
1122.7983
1098.7312
1073.3003
1139.5499
1116.999
1093.0986
1067.8427
1055.3105
1026.7511
996.69519
965.05723
1051.1816
1022.7726
992.87393
961.40061
1046.4849
1018.2468
988.52716
957.2412
1041.2107
1013.1647
983.64613
952.57069
0
0
0
0
0
0
0
0
0
0
0
0
0
0
0
0
0
0
0
0
0
0
0
0
0
0
0
0
0
0
0
0
0
0
0
0
0
0
0
0
0
0
0
0
0
0
0
0
0
0
0
0
0
0
0
0
0
0
0
0
0
0
0
0
0
0
0
0
0
0
0
0
0
0
0
0
0
0
0
0
0
0
0
0
0
0
0
0
0
0
0
0
0
0
0
0
0
0
0
0
0
0
0
0
0
0
0
0
0
0
0
0
0
0
0
0
0
0
0
0
0
0
0
0
0
0
0
0
0
0
0
0
0
0
0
0
0
0
0
0
0
0
0
0
0
0
0
0
0
0
0
0
0
0
0
0
0
0
0
0
0
0
0
0
0
0
0
0
0
0
0
0
0
0
0
0
0
0
0
0
0
0
0
0
0
0
0
0
0
0
0
0
0
0
0
0
0
0
0
0
0
0
0
0
0
0
0
0
0
0
0
0
0
0
0
0
0
0
0
0
0
0
0
0
0
0
0
0
0
0
0
0
0
0
0
0
0
0
0
0
1281.1975
1279.4836
1275.2751
1268.8229
1272.4895
1270.8124
1266.6594
1260.2797
1262.9643
1261.3264
1257.2332
1250.9319
1252.6072
1251.0107
1246.9813
1240.7641
1260.3277
1249.9507
1237.8221
1224.0472
1251.8724
1241.5975
1229.5844
1215.9376
1242.62
1232.4563
1220.569
1207.0619
1232.5551
1222.5115
1210.7605
1197.4047
1208.7115
1191.8835
1173.6176
1153.9558
1200.7419
1184.0653
1165.9618
1146.473
1192.019
1175.5077
1157.5817
1138.2822
1182.5275
1166.1957
1148.4625
1129.3687
1132.928
1110.5531
1086.8379
1061.7765
1125.6288
1103.4478
1079.9368
1055.0898
1117.6388
1095.6699
1072.3823
1047.7702
1108.9435
1087.2054
1064.161
1039.8046
1035.3484
1007.5161
978.22118
947.37995
1028.8867
1001.29
972.2419
941.65914
1021.8135
994.47497
965.69726
935.39783
1014.1161
987.05881
958.57577
928.58517
0
0
0
0
0
0
0
0
0
0
0
0
0
0
0
0
0
0
0
0
0
0
0
0
0
0
0
0
0
0
0
0
0
0
0
0
0
0
0
0
0
0
0
0
0
0
0
0
0
0
0
0
0
0
0
0
0
0
0
0
0
0
0
0
0
0
0
0
0
0
0
0
0
0
0
0
0
0
0
0
0
0
0
0
0
0
0
0
0
0
0
0
0
0
0
0
0
0
0
0
0
0
0
0
0
0
0
0
0
0
0
0
0
0
0
0
0
0
0
0
0
0
0
0
0
0
0
0
0
0
0
0
0
0
0
0
0
0
0
0
0
0
0
0
0
0
0
0
0
0
0
0
0
0
0
0
0
0
0
0
0
0
0
0
0
0
0
0
0
0
0
0
0
0
0
0
0
0
0
0
0
0
0
0
0
0
0
0
0
0
0
0
0
0
0
0
0
0
0
0
0
0
0
0
0
0
0
0
0
0
0
0
0
0
0
0
0
0
0
0
0
0
0
0
0
0
0
0
0
0
0
0
0
0
0
0
0
0
0
0
1241.4037
1239.85
1235.8882
1229.7609
1229.3388
1227.8295
1223.9387
1217.9066
1216.3986
1214.9344
1211.1177
1205.186
1202.5696
1201.1509
1197.4111
1191.5845
1221.6621
1211.7475
1200.143
1186.9503
1209.9251
1200.1483
1188.7007
1175.6829
1197.3288
1187.6985
1176.4181
1163.5869
1183.8584
1174.3832
1163.2801
1150.6472
1172.2518
1156.1139
1138.5889
1119.7174
1161.1763
1145.2466
1127.9456
1109.3134
1149.2854
1133.5785
1116.5174
1098.1416
1136.5641
1121.0947
1104.2895
1086.1875
1099.5284
1078.04
1055.2589
1031.1794
1089.3787
1068.1593
1045.662
1021.8811
1078.4796
1057.549
1035.3564
1011.8962
1066.8169
1046.1951
1024.3285
1001.2117
1005.7816
979.02914
950.86564
921.21003
996.79691
970.37348
942.55498
913.26122
987.1491
961.07943
933.63206
904.7277
976.82559
951.13499
924.08549
895.59879
0
0
0
0
0
0
0
0
0
0
0
0
0
0
0
0
0
0
0
0
0
0
0
0
0
0
0
0
0
0
0
0
0
0
0
0
0
0
0
0
0
0
0
0
0
0
0
0
0
0
0
0
0
0
0
0
0
0
0
0
0
0
0
0
0
0
0
0
0
0
0
0
0
0
0
0
0
0
0
0
0
0
0
0
0
0
0
0
0
0
0
0
0
0
0
0
0
0
0
0
0
0
0
0
0
0
0
0
0
0
0
0
0
0
0
0
0
0
0
0
0
0
0
0
0
0
0
0
0
0
0
0
0
0
0
0
0
0
0
0
0
0
0
0
0
0
0
0
0
0
0
0
0
0
0
0
0
0
0
0
0
0
0
0
0
0
0
0
0
0
0
0
0
0
0
0
0
0
0
0
0
0
0
0
0
0
0
0
0
0
0
0
0
0
0
0
0
0
0
0
0
0
0
0
0
0
0
0
0
0
0
0
0
0
0
0
0
0
0
0
0
0
0
0
0
0
0
0
0
0
0
0
0
0
0
0
0
0
0
0
1187.8399
1186.4665
1182.8057
1177.0888
1172.1992
1170.8703
1167.2903
1161.6871
1155.6398
1154.3537
1150.8558
1145.3698
1138.1566
1136.9112
1133.4958
1128.13
1169.5003
1160.1884
1149.2727
1136.85
1154.2423
1145.1019
1134.3835
1122.1824
1138.0745
1129.1132
1118.6018
1106.6338
1120.9894
1112.2147
1101.9195
1090.1958
1122.9985
1107.7812
1091.2481
1073.4375
1108.5757
1093.6253
1077.3805
1059.8791
1093.2849
1078.6162
1062.676
1045.5014
1077.1177
1062.7452
1047.1258
1030.2959
1054.3772
1034.0845
1012.5656
989.8152
1041.1483
1021.2051
1000.0559
977.69535
1027.1194
1007.5466
986.7893
964.8423
1012.2819
993.10041
972.75746
951.24805
965.81448
940.52883
913.90456
885.8645
954.10493
929.25061
903.07954
875.51573
941.68746
917.29134
891.60199
864.54472
928.55443
904.64379
879.46519
852.94532
0
0
0
0
0
0
0
0
0
0
0
0
0
0
0
0
0
0
0
0
0
0
0
0
0
0
0
0
0
0
0
0
0
0
0
0
0
0
0
0
0
0
0
0
0
0
0
0
0
0
0
0
0
0
0
0
0
0
0
0
0
0
0
0
0
0
0
0
0
0
0
0
0
0
0
0
0
0
0
0
0
0
0
0
0
0
0
0
0
0
0
0
0
0
0
0
0
0
0
0
0
0
0
0
0
0
0
0
0
0
0
0
0
0
0
0
0
0
0
0
0
0
0
0
0
0
0
0
0
0
0
0
0
0
0
0
0
0
0
0
0
0
0
0
0
0
0
0
0
0
0
0
0
0
0
0
0
0
0
0
0
0
0
0
0
0
0
0
0
0
0
0
0
0
0
0
0
0
0
0
0
0
0
0
0
0
0
0
0
0
0
0
0
0
0
0
0
0
0
0
0
0
0
0
0
0
0
0
0
0
0
0
0
0
0
0
0
0
0
0
0
0
0
0
0
0
0
0
0
0
0
0
0
0
0
0
0
0
0
0
1119.7484
1118.5406
1115.2075
1109.9643
1100.4182
1099.244
1095.9922
1090.8733
1080.1741
1079.0287
1075.8563
1070.8626
1059.0307
1057.908
1054.8122
1049.9436
1102.9832
1094.4019
1084.3319
1072.8631
1084.0557
1075.6742
1065.8378
1054.6344
1064.2119
1056.0358
1046.4407
1035.5126
1043.4623
1035.4966
1026.1499
1015.506
1060.0685
1046.0066
1030.7239
1014.2564
1042.1354
1028.3981
1013.4681
997.38043
1023.3209
1009.9218
995.35982
979.66922
1003.6328
990.58491
976.40576
961.12888
996.62992
977.8606
957.95457
936.90697
980.16055
961.82432
942.37779
921.81628
962.87489
944.99243
926.02784
905.97665
944.77859
927.37021
908.9097
889.39286
914.70044
891.30291
866.6645
840.71342
900.12289
877.26634
853.1979
827.84744
884.82248
862.53489
839.06643
814.34872
868.80386
847.11318
824.27476
800.22214
0
0
0
0
0
0
0
0
0
0
0
0
0
0
0
0
0
0
0
0
0
0
0
0
0
0
0
0
0
0
0
0
0
0
0
0
0
0
0
0
0
0
0
0
0
0
0
0
0
0
0
0
0
0
0
0
0
0
0
0
0
0
0
0
0
0
0
0
0
0
0
0
0
0
0
0
0
0
0
0
0
0
0
0
0
0
0
0
0
0
0
0
0
0
0
0
0
0
0
0
0
0
0
0
0
0
0
0
0
0
0
0
0
0
0
0
0
0
0
0
0
0
0
0
0
0
0
0
0
0
0
0
0
0
0
0
0
0
0
0
0
0
0
0
0
0
0
0
0
0
0
0
0
0
0
0
0
0
0
0
0
0
0
0
0
0
0
0
0
0
0
0
0
0
0
0
0
0
0
0
0
0
0
0
0
0
0
0
0
0
0
0
0
0
0
0
0
0
0
0
0
0
0
0
0
0
0
0
0
0
0
0
0
0
0
0
0
0
0
0
0
0
0
0
0
0
0
0
0
0
0
0
0
0
0
0
0
0
0
0
1037.009
1035.9021
1032.8791
1028.1347
1014.1386
1013.0395
1010.0843
1005.462
990.45823
989.35767
986.46445
981.96107
966.01707
964.90501
962.06666
957.67784
1021.8244
1014.0728
1004.9807
994.62939
999.3232
991.78879
982.95631
972.90478
975.99313
968.67752
960.10859
950.36281
951.87888
944.78244
936.47954
927.04401
983.0849
970.4004
956.61821
941.77104
961.69824
949.38834
936.01627
921.61387
939.5022
927.57687
914.62682
900.68307
916.53582
905.0035
892.48584
879.01307
925.88267
908.96811
891.03335
872.07446
906.2044
889.80261
872.41451
854.03654
885.76833
869.89714
853.07561
835.30059
864.60739
849.2832
833.04675
815.89542
852.07625
831.01023
808.83182
785.47664
834.65421
814.24015
792.7514
770.12583
816.55839
796.82288
776.0529
754.18872
797.81644
778.78506
758.76206
737.6904
0
0
0
0
0
0
0
0
0
0
0
0
0
0
0
0
0
0
0
0
0
0
0
0
0
0
0
0
0
0
0
0
0
0
0
0
0
0
0
0
0
0
0
0
0
0
0
0
0
0
0
0
0
0
0
0
0
0
0
0
0
0
0
0
0
0
0
0
0
0
0
0
0
0
0
0
0
0
0
0
0
0
0
0
0
0
0
0
0
0
0
0
0
0
0
0
0
0
0
0
0
0
0
0
0
0
0
0
0
0
0
0
0
0
0
0
0
0
0
0
0
0
0
0
0
0
0
0
0
0
0
0
0
0
0
0
0
0
0
0
0
0
0
0
0
0
0
0
0
0
0
0
0
0
0
0
0
0
0
0
0
0
0
0
0
0
0
0
0
0
0
0
0
0
0
0
0
0
0
0
0
0
0
0
0
0
0
0
0
0
0
0
0
0
0
0
0
0
0
0
0
0
0
0
0
0
0
0
0
0
0
0
0
0
0
0
0
0
0
0
0
0
0
0
0
0
0
0
0
0
0
0
0
0
0
0
0
0
0
0
940.87614
939.74163
936.95009
932.67033
915.10946
913.94099
911.18739
907.01012
888.80527
887.59121
884.86617
880.78399
862.06688
860.79609
858.09029
854.09537
927.03713
920.15877
912.12281
903.00037
901.53818
894.87529
887.10548
878.29706
875.46763
869.01616
861.50992
853.01443
848.92811
842.68275
835.43588
827.25021
892.84932
881.71658
869.63979
856.6484
868.5058
857.77703
846.14731
833.64534
843.58333
833.26042
822.08122
810.07388
818.17725
808.25936
797.53112
786.02025
842.76421
828.00151
812.36685
795.85823
820.29263
806.10354
791.085
775.23588
797.2597
783.65328
769.26223
754.08646
773.7481
760.72975
746.97375
732.48144
778.46397
760.16088
740.91191
720.6629
758.54574
740.99321
722.54365
703.14613
738.1171
721.33489
703.70797
685.18899
717.24592
701.25048
684.46655
666.85087
0
0
0
0
0
0
0
0
0
0
0
0
0
0
0
0
0
0
0
0
0
0
0
0
0
0
0
0
0
0
0
0
0
0
0
0
0
0
0
0
0
0
0
0
0
0
0
0
0
0
0
0
0
0
0
0
0
0
0
0
0
0
0
0
0
0
0
0
0
0
0
0
0
0
0
0
0
0
0
0
0
0
0
0
0
0
0
0
0
0
0
0
0
0
0
0
0
0
0
0
0
0
0
0
0
0
0
0
0
0
0
0
0
0
0
0
0
0
0
0
0
0
0
0
0
0
0
0
0
0
0
0
0
0
0
0
0
0
0
0
0
0
0
0
0
0
0
0
0
0
0
0
0
0
0
0
0
0
0
0
0
0
0
0
0
0
0
0
0
0
0
0
0
0
0
0
0
0
0
0
0
0
0
0
0
0
0
0
0
0
0
0
0
0
0
0
0
0
0
0
0
0
0
0
0
0
0
0
0
0
0
0
0
0
0
0
0
0
0
0
0
0
0
0
0
0
0
0
0
0
0
0
0
0
0
0
0
0
0
0
835.0129
833.67564
830.98058
827.06544
807.77641
806.36552
803.67466
799.83314
780.50255
779.01469
776.32471
772.55341
753.34373
751.78063
749.09275
745.39232
822.04059
815.99533
809.00245
801.12179
794.94484
789.09395
782.3494
774.76811
767.79799
762.13748
755.63686
748.35004
740.76988
735.29923
729.0413
722.04695
792.40278
782.88639
772.60638
761.59023
766.39745
757.27698
747.43978
736.91322
740.32224
731.59165
722.19061
712.14645
714.35916
706.01458
697.04473
687.47678
749.85958
737.4303
724.3123
710.50882
725.71946
713.87552
701.39313
688.27809
701.48197
690.2156
678.36129
665.92804
677.33409
666.63644
655.40011
643.63761
696.01552
680.81891
664.89443
648.20376
674.52937
660.13775
645.08384
629.33559
652.91913
639.33092
625.15108
610.35619
631.35722
618.56221
605.24961
591.40838
0
0
0
0
0
0
0
0
0
0
0
0
0
0
0
0
0
0
0
0
0
0
0
0
0
0
0
0
0
0
0
0
0
0
0
0
0
0
0
0
0
0
0
0
0
0
0
0
0
0
0
0
0
0
0
0
0
0
0
0
0
0
0
0
0
0
0
0
0
0
0
0
0
0
0
0
0
0
0
0
0
0
0
0
0
0
0
0
0
0
0
0
0
0
0
0
0
0
0
0
0
0
0
0
0
0
0
0
0
0
0
0
0
0
0
0
0
0
0
0
0
0
0
0
0
0
0
0
0
0
0
0
0
0
0
0
0
0
0
0
0
0
0
0
0
0
0
0
0
0
0
0
0
0
0
0
0
0
0
0
0
0
0
0
0
0
0
0
0
0
0
0
0
0
0
0
0
0
0
0
0
0
0
0
0
0
0
0
0
0
0
0
0
0
0
0
0
0
0
0
0
0
0
0
0
0
0
0
0
0
0
0
0
0
0
0
0
0
0
0
0
0
0
0
0
0
0
0
0
0
0
0
0
0
0
0
0
0
0
0
726.45264
724.8217
722.14239
718.51853
699.97349
698.28752
695.6283
692.09149
674.03345
672.30934
669.68541
666.24951
648.73631
646.99318
644.42145
641.1016
714.03401
708.75749
702.74586
696.04689
687.75458
682.68122
676.92438
670.52885
662.07302
657.21481
651.72411
645.64281
637.09924
632.46865
627.25547
621.49877
688.70126
680.74402
672.2057
663.11315
663.53306
655.97047
647.87065
639.26002
639.00717
631.84906
624.19701
616.0769
615.23261
608.48723
601.2899
593.66568
653.49
643.35712
632.73271
621.63238
630.16247
620.5997
610.59154
600.1561
607.51252
598.526
589.13803
579.36809
585.63785
577.22831
568.45778
559.346
610.06905
598.05283
585.59088
572.68739
589.30992
578.06797
566.44376
554.44942
569.23456
558.75468
547.94452
536.81879
549.91172
540.17262
530.14518
519.8443
0
0
0
0
0
0
0
0
0
0
0
0
0
0
0
0
0
0
0
0
0
0
0
0
0
0
0
0
0
0
0
0
0
0
0
0
0
0
0
0
0
0
0
0
0
0
0
0
0
0
0
0
0
0
0
0
0
0
0
0
0
0
0
0
0
0
0
0
0
0
0
0
0
0
0
0
0
0
0
0
0
0
0
0
0
0
0
0
0
0
0
0
0
0
0
0
0
0
0
0
0
0
0
0
0
0
0
0
0
0
0
0
0
0
0
0
0
0
0
0
0
0
0
0
0
0
0
0
0
0
0
0
0
0
0
0
0
0
0
0
0
0
0
0
0
0
0
0
0
0
0
0
0
0
0
0
0
0
0
0
0
0
0
0
0
0
0
0
0
0
0
0
0
0
0
0
0
0
0
0
0
0
0
0
0
0
0
0
0
0
0
0
0
0
0
0
0
0
0
0
0
0
0
0
0
0
0
0
0
0
0
0
0
0
0
0
0
0
0
0
0
0
0
0
0
0
0
0
0
0
0
0
0
0
0
0
0
0
0
0
624.1594
622.41663
619.91385
616.72459
600.3532
598.62893
596.21022
593.1641
577.34269
575.6526
573.33049
570.43726
555.1288
553.48511
551.26873
548.53481
612.90896
608.51688
603.59051
598.16614
589.54547
585.40006
580.76665
575.67877
567.0229
563.12914
558.79149
554.04073
545.3287
541.68834
537.64607
533.22999
592.27558
585.94727
579.20706
572.07883
570.16594
564.25469
557.96924
551.33207
548.90409
543.40608
537.56919
531.41432
528.46502
523.37365
517.97655
512.29295
564.58494
556.74653
548.58371
540.11565
544.36428
537.0859
529.51598
521.6727
524.96115
518.22834
511.23368
503.99409
506.34097
500.13782
493.69987
487.04268
531.36059
522.33569
513.05683
503.53818
513.5733
505.23395
496.66951
487.89316
496.5256
488.84318
480.96055
472.88976
480.18098
473.12845
465.89761
458.49939
0
0
0
0
0
0
0
0
0
0
0
0
0
0
0
0
0
0
0
0
0
0
0
0
0
0
0
0
0
0
0
0
0
0
0
0
0
0
0
0
0
0
0
0
0
0
0
0
0
0
0
0
0
0
0
0
0
0
0
0
0
0
0
0
0
0
0
0
0
0
0
0
0
0
0
0
0
0
0
0
0
0
0
0
0
0
0
0
0
0
0
0
0
0
0
0
0
0
0
0
0
0
0
0
0
0
0
0
0
0
0
0
0
0
0
0
0
0
0
0
0
0
0
0
0
0
0
0
0
0
0
0
0
0
0
0
0
0
0
0
0
0
0
0
0
0
0
0
0
0
0
0
0
0
0
0
0
0
0
0
0
0
0
0
0
0
0
0
0
0
0
0
0
0
0
0
0
0
0
0
0
0
0
0
0
0
0
0
0
0
0
0
0
0
0
0
0
0
0
0
0
0
0
0
0
0
0
0
0
0
0
0
0
0
0
0
0
0
0
0
0
0
0
0
0
0
0
0
0
0
0
0
0
0
0
0
0
0
0
0
533.6885
532.09865
529.99264
527.42031
512.97162
511.43526
509.43724
507.02275
492.89039
491.39105
489.4851
487.21424
473.28997
471.76937
469.91025
467.75062
524.42268
521.03413
517.28395
513.19764
504.22892
501.08677
497.62263
493.85937
484.61208
481.70617