/*--------------------------------*- C++ -*----------------------------------*\
| =========                 |                                                 |
| \\      /  F ield         | OpenFOAM: The Open Source CFD Toolbox           |
|  \\    /   O peration     | Version:  1.4.1-dev                             |
|   \\  /    A nd           | Web:      http://www.openfoam.org               |
|    \\/     M anipulation  |                                                 |
\*---------------------------------------------------------------------------*/

FoamFile
{
    version 2.0;
    format ascii;

    root "/home/cliffoi/OpenFOAM/cliffoi-1.4.1-dev/run/diffusionFoam";
    case "oecd_simplified_2G";
    instance "0";
    local "";

    class volScalarField;
    object Tmod;
}

// * * * * * * * * * * * * * * * * * * * * * * * * * * * * * * * * * * * * * //

dimensions      [0 0 0 1 0 0 0];

internalField   nonuniform List<scalar> 
9280
(
306.41657
306.41485
306.41106
306.40531
333.04648
333.04137
333.03011
333.013
359.96403
359.95567
359.93727
359.90929
387.3518
387.34046
387.31549
387.27751
306.38847
306.34633
306.28482
306.20361
332.96295
332.83766
332.65473
332.41308
359.82746
359.62252
359.32312
358.92726
387.16643
386.88808
386.48104
385.94214
306.09938
305.96961
305.81589
305.63736
332.10279
331.71621
331.25795
330.72526
358.41842
357.78361
357.02991
356.15226
385.24827
384.38078
383.34831
382.1427
305.51512
305.47002
305.42371
305.37618
330.36018
330.22548
330.08712
329.94508
355.54962
355.32717
355.09858
354.86382
381.31238
381.00567
380.6903
380.36619
305.3116
305.22817
305.14137
305.05119
329.75207
329.5026
329.24299
328.97314
354.54466
354.13187
353.70196
353.25478
379.92524
379.35428
378.75895
378.13899
304.97236
304.90644
304.8389
304.76973
328.73721
328.53986
328.3376
328.13042
352.86353
352.53609
352.20034
351.85625
377.59593
377.14107
376.6743
376.19555
304.65774
304.49784
304.33037
304.15535
327.7949
327.3156
326.81335
326.2882
351.29872
350.50144
349.66513
348.78981
375.41923
374.30717
373.13875
371.91387
303.97282
303.78285
303.58554
303.38101
325.74027
325.16977
324.57696
323.96221
347.87565
346.92292
345.93209
344.90372
370.63264
369.29538
367.90266
366.45528
303.16941
302.95091
302.72572
302.49406
323.32597
322.66877
321.9912
321.29396
343.83857
342.73753
341.60161
340.432
364.95425
363.40083
361.79653
360.14304
302.25617
302.01234
301.76285
301.50801
320.57781
319.84357
319.09215
318.32448
339.23001
337.99706
336.7347
335.44459
358.44229
356.6964
354.90766
353.07855
301.24815
300.98362
300.71476
300.44194
317.54157
316.74448
315.93427
315.11208
334.12846
332.78815
331.42553
330.04254
351.21165
349.3097
347.37553
345.41201
300.23992
300.11075
299.98091
299.85042
314.50323
314.11393
313.72258
313.3293
329.01832
328.36341
327.70504
327.04342
343.95767
343.02769
342.09279
341.15326
299.6885
299.49482
299.30006
299.10434
312.8413
312.25755
311.67057
311.0807
326.22244
325.24042
324.25297
323.26073
339.98744
338.59298
337.19091
335.78216
298.94775
298.83056
298.71313
298.59549
310.60878
310.25562
309.90174
309.54722
322.46694
321.87293
321.27775
320.68152
334.65528
333.81209
332.9673
332.12109
298.42021
298.18735
297.95406
297.7205
309.01903
308.31736
307.61443
306.91077
319.79328
318.61342
317.4316
316.24873
330.86057
329.18654
327.5101
325.83257
297.44366
297.12434
296.80562
296.4879
306.07674
305.11482
304.15483
303.19795
314.84693
313.2305
311.61768
310.01043
323.84503
321.55398
319.26886
316.99244
296.18524
295.89753
295.61151
295.32742
302.28652
301.42019
300.55902
299.70374
308.47985
307.02529
305.57965
304.14414
314.82535
312.76652
310.7209
308.69017
295.06717
294.83008
294.59482
294.36154
298.92028
298.20658
297.49846
296.79629
302.82939
301.63184
300.44378
299.26582
306.83072
305.13735
303.45768
301.79255
294.14566
293.94663
293.74934
293.55386
296.14654
295.54752
294.95375
294.36544
298.17589
297.17113
296.17521
295.18849
300.25206
298.83206
297.42468
296.03038
293.4185
293.34137
293.26455
293.18806
293.95804
293.72593
293.49475
293.26454
294.50521
294.11591
293.7282
293.3421
295.0649
294.51482
293.96699
293.42143
415.37771
415.36378
415.33311
415.28647
444.18733
444.17137
444.13624
444.08279
473.89471
473.87747
473.83952
473.78177
504.57185
504.55427
504.51558
504.4567
415.14999
414.80776
414.30662
413.64192
443.92638
443.53375
442.95785
442.19212
473.61271
473.18785
472.56334
471.73052
504.28427
503.85034
503.21094
502.35533
412.78405
411.70835
410.42359
408.91749
441.20084
439.95293
438.45555
436.69082
470.64824
469.27897
467.62608
465.6644
501.23837
499.81671
498.08779
496.0175
407.87572
407.49054
407.09408
406.68622
435.46289
435.00826
434.53968
434.05697
464.28855
463.77821
463.25123
462.70732
494.55027
494.00468
493.43988
492.85541
406.13079
405.41037
404.65795
403.87305
433.39866
432.54281
431.64681
430.70989
461.96412
460.99477
459.9766
458.90837
492.05468
491.00562
489.89867
488.73182
403.18435
402.60682
402.01346
401.40417
429.88581
429.19361
428.48126
427.74856
457.96561
457.17187
456.35312
455.50902
487.69711
486.82305
485.91844
484.9827
400.41502
398.99457
397.4985
395.92643
426.55711
424.84012
423.02548
421.11229
454.13321
452.14066
450.02453
447.78293
483.45242
481.22028
478.83307
476.28722
394.27831
392.55438
390.75525
388.88186
419.10008
416.98885
414.77913
412.47195
445.41464
442.91916
440.2967
437.54827
473.58015
470.71039
467.67759
464.48257
386.93553
384.9179
382.83097
380.67707
410.06887
407.57195
404.98377
402.30741
434.67564
431.68133
428.56862
425.34147
461.12728
457.61475
453.94913
450.13557
378.45884
376.17922
373.84142
371.44889
399.54638
396.70466
393.78661
390.79695
422.00457
418.56319
415.02322
411.39105
446.1802
442.09006
437.87306
433.53789
369.0053
366.51447
363.98039
361.40714
387.74069
384.62312
381.44972
378.2261
407.67355
403.87793
400.01173
396.08265
429.09391
424.55108
419.91982
415.21084
359.50085
358.28183
357.05632
355.82475
375.83755
374.31008
372.77447
371.2313
393.17082
391.30866
389.43664
387.55553
411.72039
409.48825
407.24448
404.99014
354.29659
352.46886
350.63135
348.78536
369.31661
367.02688
364.72532
362.41367
385.22179
382.43155
379.62776
376.81271
402.19392
398.85206
395.49563
392.12769
347.30898
346.20441
345.09789
343.98967
360.56538
359.18282
357.79809
356.41151
374.5629
372.88046
371.19587
369.50956
389.43779
387.42709
385.41472
383.40123
342.33909
340.14772
337.95394
335.75949
354.34681
351.6069
348.86531
346.12429
366.99934
363.67046
360.34189
357.01643
380.40539
376.4364
372.47179
368.51493
333.16047
330.16611
327.18104
324.20886
342.87963
339.14416
335.423
331.72056
353.08285
348.55884
344.05668
339.58153
363.8393
358.46935
353.13254
347.8346
321.38085
318.69528
316.02805
313.38126
328.20015
324.85906
321.54266
318.25338
335.33033
331.2989
327.30022
323.33696
342.80787
338.04592
333.32714
328.6542
310.95856
308.75284
306.5655
304.39756
315.24402
312.50518
309.79003
307.09973
319.71321
316.41675
313.15017
309.91466
324.38488
320.50343
316.65916
312.85316
302.39224
300.54403
298.71243
296.898
304.61184
302.31927
300.04762
297.79752
306.92351
304.1678
301.43773
298.73393
309.33595
306.09648
302.88786
299.71065
295.64169
294.92591
294.21306
293.50318
296.23965
295.35209
294.46817
293.58794
296.86213
295.79572
294.73372
293.67616
297.51136
296.25841
295.01068
293.76817
536.23743
536.22065
536.1837
536.12746
568.84676
568.83201
568.79953
568.75007
602.28568
602.27417
602.24881
602.2102
636.37225
636.36496
636.3489
636.32445
535.96272
535.54754
534.93421
534.11046
568.60517
568.23955
567.69822
566.96876
602.09705
601.81136
601.38792
600.81633
636.2528
636.07208
635.80465
635.44451
533.02976
531.64493
529.94619
527.88988
566.00736
564.7673
563.23257
561.35253
600.06106
599.08296
597.865
596.35881
634.9702
634.35869
633.60131
632.66996
526.41304
525.86207
525.28975
524.69542
559.98074
559.46682
558.9306
558.37117
595.24343
594.82365
594.38349
593.92177
631.98283
631.72413
631.45264
631.16745
523.87821
522.80093
521.65682
520.44268
557.59817
556.57043
555.46885
554.28824
593.28
592.4174
591.48112
590.46305
630.77014
630.23303
629.64445
628.99496
519.35854
518.43826
517.48112
516.4861
553.22293
552.31179
551.35676
550.35602
589.52912
588.72022
587.86077
586.94707
628.38607
627.84778
627.26095
626.61684
514.85073
512.4396
509.8338
507.02677
548.69792
546.21003
543.47478
540.48038
585.40995
583.02295
580.30983
577.24989
625.48988
623.53863
621.10463
618.16317
504.01367
500.79145
497.35888
493.71648
537.21841
533.68378
529.87442
525.79098
573.83081
570.04698
565.89785
561.38665
614.71024
610.7523
606.30096
601.37006
489.86644
485.81255
481.56008
477.11571
521.43647
516.81599
511.93649
506.80668
556.51937
551.30409
545.75059
539.87011
595.97426
590.1283
583.8467
577.14366
472.48747
467.68468
462.7179
457.59885
501.43689
495.8391
490.02697
484.01594
533.6753
527.18039
520.40144
513.35679
570.03319
562.52933
554.6466
546.40072
452.34038
446.95632
441.46132
435.87064
477.82326
471.46808
464.97135
458.35559
506.06769
498.55909
490.86042
483.00631
537.80994
528.89733
519.69473
510.24983
431.72607
429.07587
426.41237
423.73707
453.4506
450.31486
447.16457
444.00202
477.18139
473.45925
469.72287
465.97611
503.22556
498.74349
494.25562
489.76958
420.41992
416.45814
412.48234
408.49666
440.08333
435.40873
430.72418
426.03535
461.33984
455.82222
450.30735
444.80273
484.23816
477.69128
471.18327
464.72117
405.31668
402.94121
400.56536
398.18985
422.30063
419.51363
416.72913
413.94797
440.43063
437.17348
433.92465
430.68504
459.61357
455.81882
452.04356
448.28826
394.65787
389.98526
385.32453
380.67961
409.81726
404.36403
398.93587
393.53696
425.88115
419.5586
413.28331
407.05869
442.73261
435.45144
428.25192
421.13462
375.19871
368.91574
362.68269
356.50534
387.1786
379.90784
372.71136
365.59414
399.74632
391.41085
383.18363
375.06724
412.7988
403.33106
394.01546
384.8501
350.65329
345.11665
339.63666
334.21564
358.86446
352.50741
346.22421
340.01634
367.40965
360.18889
353.0632
346.03261
376.22299
368.10308
360.10298
352.22072
329.26752
324.77211
320.32252
315.91959
334.3562
329.21808
324.13593
319.11013
339.62999
333.82297
328.08359
322.41155
345.05115
338.55427
332.13797
325.80106
311.85258
308.10794
304.39992
300.72893
314.47014
310.1995
305.97187
301.78738
317.17778
312.36249
307.59718
302.88161
319.95695
314.58219
309.26485
304.00422
298.18818
296.74076
295.29939
293.86409
298.89167
297.24209
295.59946
293.96378
299.61889
297.76033
295.90965
294.06683
300.36495
298.29198
296.22786
294.17255
670.86904
670.86655
670.86107
670.85274
705.50589
705.50829
705.51359
705.52167
740.00755
740.0145
740.02982
740.05315
774.11798
774.12887
774.15285
774.18935
670.82835
670.76726
670.67799
670.56016
705.54538
705.60578
705.69673
705.82248
740.12152
740.29422
740.55048
740.89708
774.29624
774.56533
774.96222
775.49424
670.40954
670.22425
670.01082
669.77731
705.99435
706.22781
706.53734
706.95179
741.35653
741.95443
742.7038
743.63744
776.19084
777.08191
778.17369
779.49491
669.63685
669.58761
669.54009
669.49492
707.28987
707.42024
707.56038
707.71118
744.33347
744.59564
744.87069
745.1593
780.44445
780.79879
781.16697
781.54944
669.43925
669.38204
669.34249
669.32866
707.92629
708.22825
708.57089
708.96065
745.56041
746.09896
746.68201
747.31322
782.07551
782.76942
783.50679
784.28971
669.34814
669.38779
669.45773
669.56629
709.33472
709.66887
710.03484
710.43558
747.88853
748.3839
748.90654
749.45764
784.98911
785.58291
786.20058
786.84269
669.81595
668.98859
667.1828
664.52465
711.12918
710.74246
709.19763
706.62841
750.37615
750.17031
748.68533
746.06022
787.89789
787.76339
786.2451
783.48992
661.1021
656.97913
652.20409
646.81477
703.13847
698.80853
693.70189
687.86859
742.40506
737.80741
732.33718
726.05041
779.61452
774.71209
768.8574
762.11068
640.84156
634.30939
627.23896
619.6474
681.34855
674.17363
666.36921
657.95501
718.99209
711.19822
702.69725
693.51103
754.52043
746.12558
736.9569
727.038
611.54861
602.95312
593.86764
584.29404
648.94554
639.35005
629.17206
618.40847
683.65525
673.13953
661.96708
650.13395
716.3858
705.01071
692.91623
680.09839
574.22758
563.6539
552.54396
540.84549
607.04808
595.0696
582.43901
569.10646
637.6279
624.42685
610.49673
595.78895
666.54457
652.23196
637.12542
621.17466
531.79951
526.14742
520.5843
515.1015
558.79881
552.34801
545.9956
539.73681
584.42276
577.30156
570.28292
563.36341
608.84943
601.12232
593.50211
585.9858
508.42009
500.62089
492.9522
485.40407
532.11633
523.23823
514.52936
505.97924
554.93504
545.11342
535.48002
526.02574
576.8267
566.14858
555.67188
545.3883
479.48068
475.09604
470.74839
466.4367
499.28685
494.34045
489.44304
484.59311
518.62988
513.16577
507.7582
502.40564
537.3434
531.39996
525.51838
519.69719
460.07537
451.77741
443.60524
435.55416
477.44763
468.15096
459.01714
450.0384
494.52361
484.27943
474.22556
464.35305
511.12612
499.98985
489.06462
478.34111
426.15289
415.5123
405.07361
394.82915
439.57492
427.7612
416.19668
404.8689
452.8602
439.90235
427.23439
414.8407
465.86339
451.80452
438.06946
424.64071
385.20709
376.16616
367.27181
358.51969
394.24705
384.28005
374.4862
364.8589
403.23215
392.34922
381.66414
371.16847
412.07068
400.29283
388.73502
377.38739
350.56768
343.36757
336.26171
329.24792
356.11954
348.21174
340.4119
332.71689
361.64702
353.0357
344.54554
336.17254
367.09741
357.79399
348.62409
339.58295
322.78275
316.83889
310.96018
305.14539
325.62667
319.11006
312.66637
306.29386
328.45999
321.37295
314.36644
307.43827
331.25671
323.60691
316.04497
308.56827
301.12332
298.8324
296.55132
294.28
301.88655
299.37628
296.87684
294.38815
302.6471
299.91825
297.20123
294.49591
303.39808
300.45341
297.52154
294.60233
807.6158
807.6299
807.66095
807.70819
840.32033
840.33693
840.37349
840.42908
872.09077
872.10925
872.14992
872.21177
902.82167
902.8415
902.88515
902.95149
807.84643
808.19364
808.70352
809.38273
840.59171
840.99942
841.59616
842.38739
872.39264
872.84543
873.50651
874.38003
903.14549
903.63061
904.33762
905.26944
810.26461
811.37987
812.72676
814.32792
843.40844
844.68933
846.22106
848.02076
875.50227
876.90203
878.56451
880.50253
906.46275
907.9451
909.6973
911.72901
815.45432
815.8725
816.3047
816.75123
849.2699
849.73219
850.20846
850.69893
881.83595
882.32845
882.83483
883.35523
913.11875
913.63138
914.15777
914.69802
817.362
818.16005
818.99989
819.88279
851.36758
852.23646
853.14573
854.09624
884.06325
884.98015
885.9364
886.93259
915.43206
916.38058
917.36763
918.39365
820.66359
821.32191
822.00194
822.70403
854.93209
855.6341
856.35649
857.09949
887.80562
888.53717
889.28823
890.05897
919.29088
920.04159
920.81121
921.59986
823.84997
823.73218
822.13477
819.21318
858.3077
858.17505
856.47377
853.36769
891.30952
891.14148
889.32179
886.02219
922.87766
922.65978
920.71265
917.21546
815.09093
809.86671
803.61985
796.41428
848.98698
843.43573
836.79759
829.14002
881.37922
875.50207
868.47851
860.37933
912.31069
906.11235
898.71208
890.18385
788.30158
779.32315
769.51176
758.89254
820.51745
810.97358
800.543
789.25224
851.26167
841.17138
830.14475
818.20964
880.5873
869.97035
858.37089
845.81799
747.48356
735.29591
722.33345
708.5921
777.12038
764.15912
750.37257
735.75648
805.38602
791.68618
777.1144
761.66624
832.3325
817.92723
802.60665
786.36608
694.05873
678.70943
662.50735
645.3996
720.29705
703.96918
686.73413
668.53627
745.32721
728.07103
709.8571
690.62717
769.19042
751.05226
731.90923
711.70062
632.18112
623.89058
615.7116
607.64131
654.47653
645.65582
636.95143
628.36049
675.77158
666.44956
657.24854
648.16562
696.09103
686.29415
676.62278
667.07395
597.80401
586.33058
575.06986
564.01386
617.88603
605.66547
593.66802
581.88572
637.08916
624.16282
611.46934
599.00069
655.42746
641.83281
628.48019
615.36144
555.36304
548.97142
542.64593
536.38513
572.66464
565.85092
559.10706
552.43158
589.24046
582.02756
574.88785
567.81987
605.0904
597.4992
589.98428
582.54414
527.16656
515.18907
503.43929
491.90772
542.60171
529.82851
517.29724
504.99821
557.41108
543.88355
530.61052
517.58214
571.5863
557.34284
543.3653
529.6436
478.49175
463.37953
448.61968
434.19346
490.68927
474.5717
458.83106
443.44777
502.42342
485.34735
468.66986
452.37069
513.67638
495.68719
478.11606
460.94211
420.69405
408.04905
395.64374
383.46726
429.0545
415.57383
402.35034
389.37237
437.12053
422.83755
408.82743
395.07791
444.87248
429.82135
415.05731
400.56759
372.42838
362.44975
352.61601
342.92181
377.60829
366.97514
356.49729
346.16895
382.61491
371.35039
360.25076
349.30984
387.43346
375.56228
363.86481
352.33459
333.99531
325.79478
317.68906
309.67517
336.65919
327.92327
319.28871
310.75225
339.23631
329.98271
320.83662
311.79456
341.71849
331.96647
322.32777
312.79872
304.13374
300.97767
297.83533
294.70657
304.8496
301.48781
298.14068
294.80801
305.54237
301.98152
298.43619
294.90619
306.2098
302.45716
298.72089
295.00077
932.43706
932.45782
932.5035
932.57294
960.88466
960.90601
960.95301
961.02443
988.13094
988.15264
988.20036
988.27291
1014.157
1014.1788
1014.2269
1014.2998
932.77595
933.28321
934.0215
934.99275
961.23321
961.7546
962.5127
963.50869
988.48492
989.01419
989.78317
990.79248
1014.5131
1015.0454
1015.8183
1016.832
936.23369
937.77073
939.58152
941.67339
964.7791
966.34938
968.19494
970.3214
992.0783
993.66522
995.52714
997.66841
1018.1223
1019.713
1021.5769
1023.7175
943.09859
943.62384
944.16271
944.71528
971.76614
972.29826
972.84384
973.40294
999.12029
999.65481
1000.2026
1000.7637
1025.1668
1025.7001
1026.2466
1026.8061
945.46538
946.43322
947.4389
948.48275
974.16144
975.13912
976.15397
977.20627
1001.5246
1002.5046
1003.5212
1004.5744
1027.5646
1028.5411
1029.5533
1030.6015
949.39425
950.15615
950.93647
951.73532
978.12421
978.89096
979.67572
980.47856
1005.4925
1006.259
1007.0431
1007.8449
1031.5147
1032.2768
1033.0561
1033.8527
953.02841
952.75007
950.66989
946.97401
981.77726
981.4305
979.214
975.32038
1009.1412
1008.7202
1006.3659
1002.277
1035.1401
1034.6405
1032.1482
1027.8677
941.8105
935.29785
927.53139
918.58801
969.90292
963.08434
954.96338
945.6197
996.61163
989.49653
981.0336
971.30511
1021.9615
1014.5601
1005.7683
995.67095
908.52977
897.40649
885.25758
872.11326
935.11761
923.50874
910.83391
897.12445
960.37746
948.30399
935.12687
920.87843
984.33632
971.81937
958.16353
943.40211
857.99521
842.91673
826.88247
809.88755
882.4028
866.68277
849.96913
832.25687
905.58187
889.25144
871.8921
853.49867
927.559
910.64887
892.67684
873.63763
791.91629
772.94021
752.91535
731.77866
813.52977
793.75835
772.89715
750.88099
834.05444
813.52903
791.87559
769.02692
853.51404
832.27489
809.872
786.23633
715.45466
705.20786
695.09086
685.10062
733.88052
723.20768
712.66867
702.26038
751.38657
740.3107
729.37242
718.56857
767.99149
756.53482
745.21925
734.04157
672.91404
658.68613
644.70888
630.97394
689.56227
674.73449
660.16543
645.84657
705.38638
689.99083
674.86152
659.98977
720.40181
704.46948
688.8104
673.4157
620.21861
612.2687
604.39793
596.60476
634.63222
626.34226
618.1341
610.00616
648.34068
639.72861
631.20081
622.75567
661.35533
652.4385
643.60822
634.86287
585.12598
570.20292
555.55626
541.17568
598.03328
582.4654
567.18358
552.17731
610.31454
594.13538
578.25125
562.65141
621.97852
605.22057
588.76596
572.60375
524.43965
505.58138
487.1589
469.1508
534.71083
515.02631
495.79388
476.99161
544.49173
524.02267
504.02076
484.4636
553.7871
532.57417
511.84234
491.5688
452.29902
436.51413
421.02934
405.83146
459.39465
442.91026
426.73796
410.86419
466.15793
449.00794
432.18116
415.66369
472.59028
454.80812
437.3595
420.23023
392.05483
379.60254
367.33216
355.23696
396.47401
383.46658
370.64868
358.01337
400.68895
387.15243
373.81257
360.66223
404.69971
390.66004
376.82368
363.18335
344.10048
333.87032
323.75895
313.76254
346.37928
335.69182
325.12829
314.68474
348.55354
337.42983
326.43492
315.56474
350.62304
339.08418
327.67869
316.40241
306.85042
302.91371
298.99416
295.09156
307.46339
303.35055
299.25565
295.17843
308.04832
303.76741
299.50516
295.26133
308.60512
304.16423
299.74269
295.34024
1038.9554
1038.9772
1039.0252
1039.0981
1062.5276
1062.5492
1062.5969
1062.6693
1084.8819
1084.9033
1084.9504
1085.0219
1106.0321
1106.0531
1106.0995
1106.17
1039.3111
1039.8425
1040.614
1041.6252
1062.8808
1063.4085
1064.1742
1065.1775
1085.2311
1085.7527
1086.5094
1087.5006
1106.376
1106.8898
1107.635
1108.6107
1042.9114
1044.4957
1046.3504
1048.4781
1066.453
1068.023
1069.8596
1071.9648
1088.7601
1090.3096
1092.1212
1094.1964
1109.8503
1111.3746
1113.1558
1115.195
1049.917
1050.4464
1050.9887
1051.5438
1073.3872
1073.9105
1074.4463
1074.9947
1095.5974
1096.1127
1096.6404
1097.1803
1116.571
1117.077
1117.595
1118.125
1052.2961
1053.2642
1054.2673
1055.3056
1075.7378
1076.6936
1077.6837
1078.7082
1097.9117
1098.8523
1099.8263
1100.8339
1118.8429
1119.7659
1120.7215
1121.7098
1056.2097
1056.9641
1057.7352
1058.5232
1079.6
1080.3439
1081.1041
1081.8807
1101.7108
1102.442
1103.1891
1103.9522
1122.5696
1123.2864
1124.0188
1124.7667
1059.7963
1059.2153
1056.5861
1052.1185
1083.1352
1082.471
1079.707
1075.0576
1105.1846
1104.4365
1101.5404
1096.7152
1125.9743
1125.1423
1122.1174
1117.1229
1045.9793
1038.3024
1029.1954
1018.7453
1068.6938
1060.7526
1051.3442
1040.5578
1090.1356
1081.9416
1072.2459
1061.1396
1110.3368
1101.9017
1091.9329
1080.5231
1007.0224
994.08311
979.97201
964.72333
1028.4654
1015.1248
1000.5817
984.87109
1048.6964
1034.9753
1020.023
1003.8756
1067.7475
1053.6665
1038.3277
1021.7678
948.36161
930.90194
912.34961
892.69919
968.01827
950.03864
930.93766
910.70979
986.55858
968.08794
948.46921
927.69679
1004.0131
985.07966
964.97331
943.68833
871.9331
850.01935
826.90858
802.53004
889.33707
866.7868
843.00851
817.92983
905.75235
882.60252
858.19582
832.4584
921.20606
897.49254
872.49532
846.13919
783.71494
771.89898
760.22739
748.69688
798.5776
786.42317
774.41612
762.55313
812.60106
800.1283
787.8057
775.6299
825.80769
813.03604
800.41713
787.94755
734.62522
718.18611
702.02673
686.13809
748.0744
731.15754
714.52643
698.17194
760.76814
743.40163
726.32644
709.53331
772.72599
754.93703
737.44451
720.23908
673.68916
664.48435
655.36824
646.33914
685.35646
675.87997
666.49413
657.19727
696.37262
686.64022
677.0003
667.45116
706.75385
696.78084
686.90199
677.11557
633.03581
615.7306
598.73643
582.04219
643.4985
625.67663
608.17294
590.97617
653.37978
635.07095
617.08693
599.41629
662.69372
643.92676
625.49073
607.37406
562.60384
540.68669
519.26361
498.31136
570.95042
548.36772
526.2911
504.69697
578.83654
555.6259
532.93251
510.73244
586.27274
562.47076
539.19638
516.42537
478.69515
460.31368
442.27535
424.56573
484.47749
465.52889
446.93239
428.67333
489.94329
470.45905
451.33524
432.557
495.09935
475.11016
455.48918
436.22135
408.50787
393.9907
379.68306
365.57755
412.11609
397.14667
382.39261
367.8464
415.52782
400.13091
384.95484
369.99196
418.74704
402.9469
387.37269
372.0167
352.58845
340.65536
328.85996
317.19802
354.45101
342.14436
329.97947
317.95203
356.21242
343.55252
331.03822
318.66514
357.87467
344.88144
332.03741
319.33813
309.13395
304.54112
299.96828
295.41518
309.63515
304.89831
300.18209
295.48622
310.10915
305.23613
300.38429
295.55339
310.5565
305.55494
300.57512
295.61679
1125.996
1126.0168
1126.0623
1126.1316
1144.7949
1144.8152
1144.8599
1144.9277
1162.4522
1162.472
1162.5157
1162.5821
1178.9928
1179.0122
1179.0548
1179.1196
1126.3339
1126.8385
1127.5702
1128.5281
1145.126
1145.6203
1146.3371
1147.2754
1162.776
1163.2594
1163.9603
1164.8775
1179.309
1179.781
1180.4654
1181.3608
1129.7446
1131.24
1132.9867
1134.9855
1148.4666
1149.9305
1151.6397
1153.5948
1166.0418
1167.4723
1169.1419
1171.0511
1182.4972
1183.893
1185.5218
1187.3837
1136.3335
1136.8292
1137.3366
1137.8556
1154.9127
1155.3973
1155.8933
1156.4006
1172.3376
1172.8105
1173.2946
1173.7896
1188.6378
1189.0989
1189.5706
1190.0532
1138.5586
1139.4623
1140.3976
1141.3647
1157.0877
1157.9706
1158.8843
1159.8289
1174.46
1175.3214
1176.2127
1177.1339
1190.7065
1191.5458
1192.4141
1193.3115
1142.2059
1142.9071
1143.6234
1144.3548
1160.6504
1161.3352
1162.0345
1162.7484
1177.935
1178.6026
1179.2843
1179.9802
1194.0917
1194.7418
1195.4056
1196.0832
1145.5355
1144.6205
1141.4709
1136.3138
1163.9008
1162.9041
1159.6342
1154.3217
1181.1034
1180.0269
1176.6414
1171.1809
1197.1766
1196.0227
1192.5267
1186.9258
1129.3305
1120.6664
1110.4384
1098.7415
1147.1509
1138.2696
1127.7967
1115.8286
1163.8324
1154.7457
1144.0418
1131.8184
1179.4093
1170.1292
1159.2081
1146.7451
1085.6519
1071.2312
1055.528
1038.5796
1102.443
1087.7025
1071.6565
1054.3431
1118.1546
1103.1138
1086.7462
1069.0906
1132.8204
1117.4983
1100.8298
1082.854
1020.4129
1001.0442
980.47954
958.71308
1035.7894
1016.0124
995.01782
972.80002
1050.1744
1030.0149
1008.6181
985.97817
1063.5991
1043.0825
1021.3102
998.27638
935.72586
911.48338
885.9323
858.99616
949.33971
924.60187
898.53237
871.05357
962.0756
936.8749
910.32119
882.33577
973.96136
948.32918
921.32428
892.86699
838.22036
825.16861
812.27197
799.52698
849.86228
836.54855
823.3921
810.38945
860.75675
847.19851
833.79955
820.55635
870.927
857.14108
843.51628
830.04902
783.96809
765.78294
747.89899
730.30675
794.51491
775.95897
757.70859
739.75417
804.38708
785.48486
766.89219
748.59941
813.6052
794.38034
775.46869
756.86052
716.51698
706.31814
696.21503
686.20589
725.6792
715.26886
704.95568
694.73789
734.25792
723.64993
713.14041
702.72758
742.27058
731.4783
720.7857
710.19099
671.455
652.25784
633.39726
614.86158
679.67873
660.07841
640.81991
621.89141
687.38021
667.40294
647.77228
628.47632
694.57484
674.24592
654.26804
634.62919
593.27019
568.91243
545.09184
521.78396
599.84048
574.96144
550.62844
526.81677
605.99546
580.62859
555.81596
531.53263
611.74704
585.92477
560.66428
535.94045
499.95297
479.48877
459.39999
439.67142
504.51185
483.60174
463.07376
442.91255
508.7839
487.45617
466.51678
445.95024
512.77716
491.05925
469.73544
448.79012
421.77815
405.59843
389.64943
373.92331
424.62581
408.08958
391.7885
375.71469
427.29484
410.42453
393.79352
377.39384
429.79016
412.60758
395.66814
378.96383
359.43998
346.13289
332.97835
319.9719
360.91071
347.30874
333.86247
320.56739
362.28933
348.41096
334.69123
321.12562
363.57835
349.44155
335.46615
321.64757
310.97777
305.85517
300.75484
295.6765
311.37361
306.13728
300.9237
295.7326
311.74466
306.40173
301.08199
295.78519
312.09162
306.64899
301.23
295.83436
1194.443
1194.4619
1194.5035
1194.5667
1208.8296
1208.848
1208.8886
1208.9502
1222.1794
1222.1974
1222.2369
1222.2969
1234.5193
1234.5368
1234.5753
1234.6337
1194.7514
1195.2119
1195.8793
1196.7525
1209.1302
1209.5789
1210.2293
1211.0801
1222.4723
1222.9094
1223.5429
1224.3715
1234.8045
1235.2303
1235.8472
1236.6541
1197.8604
1199.2211
1200.8084
1202.6223
1212.1596
1213.4849
1215.0307
1216.7966
1225.4227
1226.7131
1228.2178
1229.9364
1237.6775
1238.9337
1240.3982
1242.0705
1203.8437
1204.2927
1204.7521
1205.2219
1217.9854
1218.4224
1218.8695
1219.3267
1231.093
1231.5181
1231.953
1232.3978
1243.1958
1243.6093
1244.0323
1244.4649
1205.858
1206.6751
1207.5203
1208.3937
1219.9456
1220.7405
1221.5627
1222.4122
1232.9998
1233.7729
1234.5725
1235.3985
1245.0504
1245.8023
1246.5798
1247.3829
1209.1528
1209.7854
1210.4312
1211.0903
1223.1505
1223.7657
1224.3936
1225.0345
1236.1163
1236.7143
1237.3247
1237.9476
1248.0808
1248.6621
1249.2555
1249.8609
1212.1539
1210.9254
1207.3243
1201.5906
1226.0684
1224.7684
1221.0676
1215.2088
1238.9524
1237.5842
1233.7895
1227.8135
1250.8375
1249.4046
1245.5218
1239.4363
1193.9159
1184.4541
1173.3294
1160.6422
1207.3857
1197.754
1186.4391
1173.5426
1219.8517
1210.0614
1198.5695
1185.4785
1231.3454
1221.408
1209.752
1196.4809
1146.4735
1130.8887
1113.9394
1095.6652
1159.1467
1143.3173
1126.1067
1107.555
1170.8715
1154.8152
1137.3624
1118.5536
1181.6787
1165.4126
1147.736
1128.6899
1076.0946
1055.2452
1033.1234
1009.7231
1087.6911
1066.5328
1044.0864
1020.346
1098.418
1076.9737
1054.2271
1030.1723
1108.3038
1086.5958
1063.5725
1039.2279
985.0244
958.99105
931.56682
902.67116
995.29156
968.88629
941.07346
911.77169
1004.7889
978.03993
949.86814
920.19136
1013.5415
986.47615
957.97396
927.95217
880.39594
866.39857
852.56397
838.88856
889.18605
874.99284
860.96391
847.09568
897.31919
882.94517
868.73682
854.69053
904.81645
890.27612
875.90272
861.6926
822.18964
802.66494
783.45681
764.55543
830.1604
810.35785
790.87492
771.70175
837.53697
817.47777
797.74097
778.31665
844.33819
824.04278
804.0723
784.41676
749.73447
738.77081
727.90795
717.14407
756.6666
745.54403
734.52327
723.60249
763.08355
751.81411
740.6474
729.58158
769.0014
757.59671
746.29559
735.0962
701.27789
680.62181
660.32081
640.36282
707.50441
686.54482
665.94404
645.68989
713.26911
692.02889
671.15085
650.62276
718.58625
697.08749
675.95398
655.17345
617.10714
590.86085
565.18329
540.04916
622.08751
595.44759
569.38275
543.86759
626.69965
599.6955
573.27227
547.4044
630.95473
603.61483
576.86115
550.66803
516.49965
494.41821
472.73616
451.43782
519.95935
497.54018
475.5253
453.89893
523.16406
500.43219
478.1091
456.17893
526.12139
503.10108
480.49366
458.28319
432.11668
414.64302
397.41605
380.42773
434.27932
416.53513
399.04092
381.7886
436.28289
418.2881
400.54634
383.04945
438.13207
419.90604
401.93582
384.21322
364.78028
350.40253
336.18873
322.13428
365.89764
351.2959
336.86048
322.58675
366.9329
352.12364
337.48288
323.00599
367.88845
352.88766
338.05738
323.39296
312.41514
306.87956
301.36801
295.88021
312.71591
307.09392
301.49632
295.92284
312.99458
307.29253
301.6152
295.96234
313.25181
307.47585
301.72494
295.99879
1245.8755
1245.8926
1245.93
1245.987
1256.2736
1256.2902
1256.3267
1256.3822
1265.738
1265.7542
1265.7898
1265.8439
1274.2922
1274.308
1274.3427
1274.3955
1246.1534
1246.568
1247.1689
1247.9547
1256.5443
1256.9483
1257.5337
1258.2992
1266.0019
1266.3958
1266.9665
1267.7127
1274.5497
1274.9341
1275.4909
1276.2189
1248.9512
1250.1742
1251.5998
1253.2273
1259.27
1260.4611
1261.8493
1263.434
1268.6589
1269.8198
1271.1725
1272.7164
1277.142
1278.2743
1279.5937
1281.0993
1254.3222
1254.7245
1255.1361
1255.557
1264.4997
1264.8914
1265.292
1265.7016